LAMMPS (7 Dec 2015)
Reading data file ...
  triclinic box = (0 0 0) to (23.3007 23.3007 23.3007) with tilt (0 0 0)
  2 by 2 by 3 MPI processor grid
  reading atoms ...
  1008 atoms
Bisection: Getting new map
Scanning dump file ...
Reading snapshot from dump file ...
  triclinic box = (0 0 0) to (23.3007 23.3007 23.3007) with tilt (0 0 0)
  1008 atoms before read
  1008 atoms in snapshot
  0 atoms purged
  1008 atoms replaced
  0 atoms trimmed
  0 atoms added
  1008 atoms after read
Scanning dump file ...
Reading snapshot from dump file ...
  triclinic box = (0 0 0) to (23.3007 23.3007 23.3007) with tilt (0 0 0)
  1008 atoms before read
  1008 atoms in snapshot
  0 atoms purged
  1008 atoms replaced
  0 atoms trimmed
  0 atoms added
  1008 atoms after read
CR_UPDATE- 23.300680	23.300680	23.300680	0.000000	0.000000	0.000000
For k = 0, applying strain of 0.995
Changing box ...
  triclinic box = (0.0582517 0 0) to (23.2424 23.3007 23.3007) with tilt (0 0 0)
WARNING: Resetting reneighboring criteria during minimization (../min.cpp:168)
Ewald initialization ...
  G vector (1/distance) = 0.365089
  estimated absolute RMS force accuracy = 1.92191e-05
  estimated relative force accuracy = 1.33469e-06
  KSpace vectors: actual max1d max3d = 2088 10 4630
                  kxmax kymax kzmax  = 10 10 10
Neighbor list info ...
  2 neighbor list requests
  update every 1 steps, delay 0 steps, check yes
  max neighbors/atom: 2000, page size: 100000
  master list distance cutoff = 11
  ghost atom cutoff = 11
Setting up cg style minimization ...
  Unit style: metal
Memory usage per processor = 4.56159 Mbytes
Step Temp E_pair E_mol TotEng Press 
       0           10   -18274.489            0   -18273.187    2163.4648 
      17           10   -18274.635            0   -18273.334   -1433.2011 
Loop time of 0.214058 on 12 procs for 17 steps with 1008 atoms

93.8% CPU use with 12 MPI tasks x no OpenMP threads

Minimization stats:
  Stopping criterion = linesearch alpha is zero
  Energy initial, next-to-last, final = 
         -18274.488535     -18274.6352537     -18274.6352537
  Force two-norm initial, final = 1.8253 0.15777
  Force max component initial, final = 0.163482 0.0131643
  Final line search alpha, max atom move = 4.76837e-07 6.27721e-09
  Iterations, force evaluations = 17 75

MPI task timing breakdown:
Section |  min time  |  avg time  |  max time  |%varavg| %total
---------------------------------------------------------------
Pair    | 0.074959   | 0.082383   | 0.086145   |   1.0 | 38.49
Kspace  | 0.11851    | 0.1205     | 0.12249    |   0.4 | 56.29
Neigh   | 0          | 0          | 0          |   0.0 |  0.00
Comm    | 0.0074921  | 0.009976   | 0.015444   |   2.1 |  4.66
Output  | 0          | 0          | 0          |   0.0 |  0.00
Modify  | 0          | 0          | 0          |   0.0 |  0.00
Other   |            | 0.001199   |            |       |  0.56

Nlocal:    84 ave 87 max 78 min
Histogram: 1 0 0 0 1 3 0 4 2 1
Nghost:    2615.17 ave 2646 max 2588 min
Histogram: 2 1 2 2 0 0 1 2 0 2
Neighs:    18729.8 ave 19428 max 17303 min
Histogram: 1 0 0 1 0 2 2 1 2 3

Total # of neighbors = 224757
Ave neighs/atom = 222.973
Neighbor list builds = 0
Dangerous builds = 0
CR_UPDATE- 23.300680	23.300680	23.300680	0.000000	0.000000	0.000000
For k = 1, applying strain of 0.996667
Changing box ...
  triclinic box = (0.0388306 0 0) to (23.2618 23.3007 23.3007) with tilt (0 0 0)
WARNING: Resetting reneighboring criteria during minimization (../min.cpp:168)
Ewald initialization ...
  G vector (1/distance) = 0.365078
  estimated absolute RMS force accuracy = 1.92793e-05
  estimated relative force accuracy = 1.33888e-06
  KSpace vectors: actual max1d max3d = 2084 10 4630
                  kxmax kymax kzmax  = 10 10 10
Setting up cg style minimization ...
  Unit style: metal
Memory usage per processor = 4.56159 Mbytes
Step Temp E_pair E_mol TotEng Press 
      17           10   -18274.534            0   -18273.232   -1438.7758 
      32           10   -18274.599            0   -18273.297   -3787.4835 
Loop time of 0.202588 on 12 procs for 15 steps with 1008 atoms

97.3% CPU use with 12 MPI tasks x no OpenMP threads

Minimization stats:
  Stopping criterion = linesearch alpha is zero
  Energy initial, next-to-last, final = 
        -18274.5341168      -18274.598778      -18274.598778
  Force two-norm initial, final = 1.20937 0.12933
  Force max component initial, final = 0.107934 0.0125281
  Final line search alpha, max atom move = 4.76837e-07 5.97387e-09
  Iterations, force evaluations = 15 71

MPI task timing breakdown:
Section |  min time  |  avg time  |  max time  |%varavg| %total
---------------------------------------------------------------
Pair    | 0.070147   | 0.077646   | 0.081594   |   1.0 | 38.33
Kspace  | 0.11207    | 0.11435    | 0.11666    |   0.4 | 56.44
Neigh   | 0          | 0          | 0          |   0.0 |  0.00
Comm    | 0.0072365  | 0.009539   | 0.014766   |   2.1 |  4.71
Output  | 0          | 0          | 0          |   0.0 |  0.00
Modify  | 0          | 0          | 0          |   0.0 |  0.00
Other   |            | 0.001054   |            |       |  0.52

Nlocal:    84 ave 87 max 78 min
Histogram: 1 0 0 0 1 3 0 4 2 1
Nghost:    2612.42 ave 2642 max 2583 min
Histogram: 2 1 0 2 2 0 0 3 0 2
Neighs:    18701.1 ave 19392 max 17274 min
Histogram: 1 0 0 1 0 2 2 1 2 3

Total # of neighbors = 224413
Ave neighs/atom = 222.632
Neighbor list builds = 0
Dangerous builds = 0
CR_UPDATE- 23.300680	23.300680	23.300680	0.000000	0.000000	0.000000
For k = 2, applying strain of 0.998333
Changing box ...
  triclinic box = (0.0194211 0 0) to (23.2813 23.3007 23.3007) with tilt (0 0 0)
WARNING: Resetting reneighboring criteria during minimization (../min.cpp:168)
Ewald initialization ...
  G vector (1/distance) = 0.365066
  estimated absolute RMS force accuracy = 1.9345e-05
  estimated relative force accuracy = 1.34344e-06
  KSpace vectors: actual max1d max3d = 2084 10 4630
                  kxmax kymax kzmax  = 10 10 10
Setting up cg style minimization ...
  Unit style: metal
Memory usage per processor = 4.56159 Mbytes
Step Temp E_pair E_mol TotEng Press 
      32           10   -18274.497            0   -18273.195   -5001.3099 
      44           10   -18274.514            0   -18273.212   -6126.7486 
Loop time of 0.179615 on 12 procs for 12 steps with 1008 atoms

98.3% CPU use with 12 MPI tasks x no OpenMP threads

Minimization stats:
  Stopping criterion = linesearch alpha is zero
  Energy initial, next-to-last, final = 
        -18274.4968729     -18274.5139974     -18274.5139974
  Force two-norm initial, final = 0.600806 0.0835622
  Force max component initial, final = 0.0534294 0.00647481
  Final line search alpha, max atom move = 9.53674e-07 6.17486e-09
  Iterations, force evaluations = 12 63

MPI task timing breakdown:
Section |  min time  |  avg time  |  max time  |%varavg| %total
---------------------------------------------------------------
Pair    | 0.062474   | 0.068811   | 0.072395   |   1.0 | 38.31
Kspace  | 0.099621   | 0.10166    | 0.10342    |   0.4 | 56.60
Neigh   | 0          | 0          | 0          |   0.0 |  0.00
Comm    | 0.0061803  | 0.0082319  | 0.012868   |   2.0 |  4.58
Output  | 0          | 0          | 0          |   0.0 |  0.00
Modify  | 0          | 0          | 0          |   0.0 |  0.00
Other   |            | 0.0009105  |            |       |  0.51

Nlocal:    84 ave 87 max 78 min
Histogram: 1 0 0 0 1 3 0 4 2 1
Nghost:    2609.75 ave 2639 max 2581 min
Histogram: 2 1 1 1 2 0 0 3 0 2
Neighs:    18670.8 ave 19355 max 17249 min
Histogram: 1 0 0 1 0 2 2 1 2 3

Total # of neighbors = 224050
Ave neighs/atom = 222.272
Neighbor list builds = 0
Dangerous builds = 0
CR_UPDATE- 23.300680	23.300680	23.300680	0.000000	0.000000	0.000000
For k = 3, applying strain of 1
Changing box ...
  triclinic box = (0 0 0) to (23.3007 23.3007 23.3007) with tilt (0 0 0)
WARNING: Resetting reneighboring criteria during minimization (../min.cpp:168)
Ewald initialization ...
  G vector (1/distance) = 0.365055
  estimated absolute RMS force accuracy = 1.94166e-05
  estimated relative force accuracy = 1.34841e-06
  KSpace vectors: actual max1d max3d = 2084 10 4630
                  kxmax kymax kzmax  = 10 10 10
Setting up cg style minimization ...
  Unit style: metal
Memory usage per processor = 4.56159 Mbytes
Step Temp E_pair E_mol TotEng Press 
      44           10   -18274.378            0   -18273.076   -8528.8534 
      45           10   -18274.378            0   -18273.076   -8528.8534 
Loop time of 0.0673929 on 12 procs for 1 steps with 1008 atoms

98.9% CPU use with 12 MPI tasks x no OpenMP threads

Minimization stats:
  Stopping criterion = linesearch alpha is zero
  Energy initial, next-to-last, final = 
        -18274.3778955     -18274.3778955     -18274.3778955
  Force two-norm initial, final = 0.00469931 0.00469931
  Force max component initial, final = 0.000339568 0.000339568
  Final line search alpha, max atom move = 0.000488281 1.65805e-07
  Iterations, force evaluations = 1 23

MPI task timing breakdown:
Section |  min time  |  avg time  |  max time  |%varavg| %total
---------------------------------------------------------------
Pair    | 0.02332    | 0.025763   | 0.027141   |   0.6 | 38.23
Kspace  | 0.037362   | 0.038186   | 0.038916   |   0.2 | 56.66
Neigh   | 0          | 0          | 0          |   0.0 |  0.00
Comm    | 0.0023563  | 0.0031135  | 0.0048556  |   1.2 |  4.62
Output  | 0          | 0          | 0          |   0.0 |  0.00
Modify  | 0          | 0          | 0          |   0.0 |  0.00
Other   |            | 0.0003303  |            |       |  0.49

Nlocal:    84 ave 87 max 78 min
Histogram: 1 0 0 0 1 3 0 4 2 1
Nghost:    2607.75 ave 2637 max 2579 min
Histogram: 2 1 0 2 2 0 0 3 0 2
Neighs:    18636.9 ave 19316 max 17221 min
Histogram: 1 0 0 1 0 2 2 1 2 3

Total # of neighbors = 223643
Ave neighs/atom = 221.868
Neighbor list builds = 0
Dangerous builds = 0
CR_UPDATE- 23.300680	23.300680	23.300680	0.000000	0.000000	0.000000
For k = 4, applying strain of 1.00167
Changing box ...
  triclinic box = (-0.0194211 0 0) to (23.3201 23.3007 23.3007) with tilt (0 0 0)
WARNING: Resetting reneighboring criteria during minimization (../min.cpp:168)
Ewald initialization ...
  G vector (1/distance) = 0.365044
  estimated absolute RMS force accuracy = 1.94944e-05
  estimated relative force accuracy = 1.35381e-06
  KSpace vectors: actual max1d max3d = 2084 10 4630
                  kxmax kymax kzmax  = 10 10 10
Setting up cg style minimization ...
  Unit style: metal
Memory usage per processor = 4.56159 Mbytes
Step Temp E_pair E_mol TotEng Press 
      45           10   -18274.171            0   -18272.869   -12017.745 
      50           10   -18274.186            0   -18272.885   -11052.302 
      52           10   -18274.187            0   -18272.885   -11003.683 
Loop time of 0.157265 on 12 procs for 7 steps with 1008 atoms

99.0% CPU use with 12 MPI tasks x no OpenMP threads

Minimization stats:
  Stopping criterion = linesearch alpha is zero
  Energy initial, next-to-last, final = 
        -18274.1709597      -18274.186961      -18274.186961
  Force two-norm initial, final = 0.596656 0.153834
  Force max component initial, final = 0.0526418 0.0119771
  Final line search alpha, max atom move = 4.76837e-07 5.71112e-09
  Iterations, force evaluations = 7 55

MPI task timing breakdown:
Section |  min time  |  avg time  |  max time  |%varavg| %total
---------------------------------------------------------------
Pair    | 0.054534   | 0.060055   | 0.063305   |   0.9 | 38.19
Kspace  | 0.087111   | 0.089044   | 0.090549   |   0.3 | 56.62
Neigh   | 0          | 0          | 0          |   0.0 |  0.00
Comm    | 0.0055244  | 0.0073444  | 0.011427   |   1.9 |  4.67
Output  | 2.0027e-05 | 2.0862e-05 | 2.408e-05  |   0.0 |  0.01
Modify  | 0          | 0          | 0          |   0.0 |  0.00
Other   |            | 0.0008005  |            |       |  0.51

Nlocal:    84 ave 87 max 78 min
Histogram: 1 0 0 0 1 3 0 4 2 1
Nghost:    2605.75 ave 2636 max 2577 min
Histogram: 2 1 1 1 2 0 0 3 0 2
Neighs:    18603.3 ave 19283 max 17184 min
Histogram: 1 0 0 1 0 2 2 1 2 3

Total # of neighbors = 223240
Ave neighs/atom = 221.468
Neighbor list builds = 0
Dangerous builds = 0
CR_UPDATE- 23.300680	23.300680	23.300680	0.000000	0.000000	0.000000
For k = 5, applying strain of 1.00333
Changing box ...
  triclinic box = (-0.0388306 0 0) to (23.3395 23.3007 23.3007) with tilt (0 0 0)
WARNING: Resetting reneighboring criteria during minimization (../min.cpp:168)
Ewald initialization ...
  G vector (1/distance) = 0.365032
  estimated absolute RMS force accuracy = 1.95788e-05
  estimated relative force accuracy = 1.35968e-06
  KSpace vectors: actual max1d max3d = 2084 10 4630
                  kxmax kymax kzmax  = 10 10 10
Setting up cg style minimization ...
  Unit style: metal
Memory usage per processor = 4.56159 Mbytes
Step Temp E_pair E_mol TotEng Press 
      52           10   -18273.887            0   -18272.585   -15468.786 
      69           10   -18273.952            0   -18272.651   -13167.059 
Loop time of 0.318682 on 12 procs for 17 steps with 1008 atoms

99.3% CPU use with 12 MPI tasks x no OpenMP threads

Minimization stats:
  Stopping criterion = linesearch alpha is zero
  Energy initial, next-to-last, final = 
         -18273.886555     -18273.9521734     -18273.9521734
  Force two-norm initial, final = 1.18503 0.0980835
  Force max component initial, final = 0.104182 0.00782642
  Final line search alpha, max atom move = 9.53674e-07 7.46386e-09
  Iterations, force evaluations = 17 113

MPI task timing breakdown:
Section |  min time  |  avg time  |  max time  |%varavg| %total
---------------------------------------------------------------
Pair    | 0.10963    | 0.12196    | 0.12781    |   1.4 | 38.27
Kspace  | 0.17709    | 0.18031    | 0.18455    |   0.5 | 56.58
Neigh   | 0          | 0          | 0          |   0.0 |  0.00
Comm    | 0.011057   | 0.014827   | 0.023007   |   2.6 |  4.65
Output  | 0          | 0          | 0          |   0.0 |  0.00
Modify  | 0          | 0          | 0          |   0.0 |  0.00
Other   |            | 0.001588   |            |       |  0.50

Nlocal:    84 ave 87 max 78 min
Histogram: 1 0 0 0 1 3 0 4 2 1
Nghost:    2599.25 ave 2627 max 2573 min
Histogram: 2 1 1 0 3 0 0 3 1 1
Neighs:    18574.2 ave 19250 max 17151 min
Histogram: 1 0 0 1 0 2 2 1 2 3

Total # of neighbors = 222891
Ave neighs/atom = 221.122
Neighbor list builds = 0
Dangerous builds = 0
CR_UPDATE- 23.300680	23.300680	23.300680	0.000000	0.000000	0.000000
For k = 6, applying strain of 1.005
Changing box ...
  triclinic box = (-0.0582517 0 0) to (23.3589 23.3007 23.3007) with tilt (0 0 0)
WARNING: Resetting reneighboring criteria during minimization (../min.cpp:168)
Ewald initialization ...
  G vector (1/distance) = 0.365021
  estimated absolute RMS force accuracy = 1.96704e-05
  estimated relative force accuracy = 1.36604e-06
  KSpace vectors: actual max1d max3d = 2084 10 4630
                  kxmax kymax kzmax  = 10 10 10
Setting up cg style minimization ...
  Unit style: metal
Memory usage per processor = 4.56159 Mbytes
Step Temp E_pair E_mol TotEng Press 
      69           10   -18273.514            0   -18272.213   -18883.587 
      83           10   -18273.659            0   -18272.358   -15485.301 
Loop time of 0.201276 on 12 procs for 14 steps with 1008 atoms

99.4% CPU use with 12 MPI tasks x no OpenMP threads

Minimization stats:
  Stopping criterion = linesearch alpha is zero
  Energy initial, next-to-last, final = 
         -18273.514157     -18273.6593671     -18273.6593671
  Force two-norm initial, final = 1.76732 0.197681
  Force max component initial, final = 0.15479 0.0173459
  Final line search alpha, max atom move = 2.38419e-07 4.13559e-09
  Iterations, force evaluations = 14 71

MPI task timing breakdown:
Section |  min time  |  avg time  |  max time  |%varavg| %total
---------------------------------------------------------------
Pair    | 0.069718   | 0.076875   | 0.08031    |   1.0 | 38.19
Kspace  | 0.11223    | 0.11398    | 0.11603    |   0.3 | 56.63
Neigh   | 0          | 0          | 0          |   0.0 |  0.00
Comm    | 0.0070465  | 0.0093719  | 0.014545   |   2.1 |  4.66
Output  | 0          | 0          | 0          |   0.0 |  0.00
Modify  | 0          | 0          | 0          |   0.0 |  0.00
Other   |            | 0.001046   |            |       |  0.52

Nlocal:    84 ave 87 max 78 min
Histogram: 1 0 0 0 1 3 0 4 2 1
Nghost:    2597.25 ave 2625 max 2571 min
Histogram: 2 1 1 0 3 0 1 2 1 1
Neighs:    18544 ave 19218 max 17126 min
Histogram: 1 0 0 1 0 2 2 1 2 3

Total # of neighbors = 222528
Ave neighs/atom = 220.762
Neighbor list builds = 0
Dangerous builds = 0
CR_UPDATE- 23.300680	23.300680	23.300680	0.000000	0.000000	0.000000
For k = 0, applying strain of 0.995
Changing box ...
  triclinic box = (0 0.0582517 0) to (23.3007 23.2424 23.3007) with tilt (0 0 0)
WARNING: Resetting reneighboring criteria during minimization (../min.cpp:168)
Ewald initialization ...
  G vector (1/distance) = 0.365089
  estimated absolute RMS force accuracy = 1.92191e-05
  estimated relative force accuracy = 1.33469e-06
  KSpace vectors: actual max1d max3d = 2088 10 4630
                  kxmax kymax kzmax  = 10 10 10
Setting up cg style minimization ...
  Unit style: metal
Memory usage per processor = 4.56159 Mbytes
Step Temp E_pair E_mol TotEng Press 
      83           10    -18274.37            0   -18273.068    2138.1857 
      99           10   -18274.511            0   -18273.209   -1194.6908 
Loop time of 0.208061 on 12 procs for 16 steps with 1008 atoms

99.5% CPU use with 12 MPI tasks x no OpenMP threads

Minimization stats:
  Stopping criterion = linesearch alpha is zero
  Energy initial, next-to-last, final = 
        -18274.3696664     -18274.5108693     -18274.5108693
  Force two-norm initial, final = 1.76565 0.161585
  Force max component initial, final = 0.166206 0.0143621
  Final line search alpha, max atom move = 4.76837e-07 6.84837e-09
  Iterations, force evaluations = 16 73

MPI task timing breakdown:
Section |  min time  |  avg time  |  max time  |%varavg| %total
---------------------------------------------------------------
Pair    | 0.072516   | 0.080078   | 0.083675   |   1.0 | 38.49
Kspace  | 0.11509    | 0.11698    | 0.11922    |   0.4 | 56.22
Neigh   | 0          | 0          | 0          |   0.0 |  0.00
Comm    | 0.0075428  | 0.0099281  | 0.015287   |   2.1 |  4.77
Output  | 0          | 0          | 0          |   0.0 |  0.00
Modify  | 0          | 0          | 0          |   0.0 |  0.00
Other   |            | 0.001075   |            |       |  0.52

Nlocal:    84 ave 87 max 78 min
Histogram: 1 0 0 0 1 3 0 4 2 1
Nghost:    2623.08 ave 2648 max 2591 min
Histogram: 2 1 1 1 1 0 0 2 0 4
Neighs:    18733.1 ave 19418 max 17308 min
Histogram: 1 0 0 1 0 2 2 1 2 3

Total # of neighbors = 224797
Ave neighs/atom = 223.013
Neighbor list builds = 0
Dangerous builds = 0
CR_UPDATE- 23.300680	23.300680	23.300680	0.000000	0.000000	0.000000
For k = 1, applying strain of 0.996667
Changing box ...
  triclinic box = (0 0.0388306 0) to (23.3007 23.2618 23.3007) with tilt (0 0 0)
WARNING: Resetting reneighboring criteria during minimization (../min.cpp:168)
Ewald initialization ...
  G vector (1/distance) = 0.365078
  estimated absolute RMS force accuracy = 1.92793e-05
  estimated relative force accuracy = 1.33888e-06
  KSpace vectors: actual max1d max3d = 2084 10 4630
                  kxmax kymax kzmax  = 10 10 10
Setting up cg style minimization ...
  Unit style: metal
Memory usage per processor = 4.56159 Mbytes
Step Temp E_pair E_mol TotEng Press 
      99           10   -18274.457            0   -18273.156    -1456.183 
     100           10   -18274.481            0   -18273.179   -2211.6188 
     116           10   -18274.519            0   -18273.218   -3672.4321 
Loop time of 0.208266 on 12 procs for 17 steps with 1008 atoms

99.7% CPU use with 12 MPI tasks x no OpenMP threads

Minimization stats:
  Stopping criterion = linesearch alpha is zero
  Energy initial, next-to-last, final = 
        -18274.4573111     -18274.5194025     -18274.5194025
  Force two-norm initial, final = 1.16991 0.097092
  Force max component initial, final = 0.110049 0.00823553
  Final line search alpha, max atom move = 9.53674e-07 7.85402e-09
  Iterations, force evaluations = 17 73

MPI task timing breakdown:
Section |  min time  |  avg time  |  max time  |%varavg| %total
---------------------------------------------------------------
Pair    | 0.072184   | 0.079777   | 0.08354    |   1.1 | 38.31
Kspace  | 0.1152     | 0.11728    | 0.11959    |   0.4 | 56.31
Neigh   | 0          | 0          | 0          |   0.0 |  0.00
Comm    | 0.0076509  | 0.010099   | 0.015418   |   2.1 |  4.85
Output  | 1.812e-05  | 1.8835e-05 | 2.0981e-05 |   0.0 |  0.01
Modify  | 0          | 0          | 0          |   0.0 |  0.00
Other   |            | 0.001094   |            |       |  0.53

Nlocal:    84 ave 87 max 78 min
Histogram: 1 0 0 0 1 3 0 4 2 1
Nghost:    2620.33 ave 2646 max 2590 min
Histogram: 2 1 1 1 1 0 0 2 0 4
Neighs:    18703.4 ave 19399 max 17283 min
Histogram: 1 0 0 1 0 2 2 1 2 3

Total # of neighbors = 224441
Ave neighs/atom = 222.66
Neighbor list builds = 0
Dangerous builds = 0
CR_UPDATE- 23.300680	23.300680	23.300680	0.000000	0.000000	0.000000
For k = 2, applying strain of 0.998333
Changing box ...
  triclinic box = (0 0.0194211 0) to (23.3007 23.2813 23.3007) with tilt (0 0 0)
WARNING: Resetting reneighboring criteria during minimization (../min.cpp:168)
Ewald initialization ...
  G vector (1/distance) = 0.365066
  estimated absolute RMS force accuracy = 1.9345e-05
  estimated relative force accuracy = 1.34344e-06
  KSpace vectors: actual max1d max3d = 2084 10 4630
                  kxmax kymax kzmax  = 10 10 10
Setting up cg style minimization ...
  Unit style: metal
Memory usage per processor = 4.56159 Mbytes
Step Temp E_pair E_mol TotEng Press 
     116           10   -18274.459            0   -18273.158   -5010.2875 
     127           10   -18274.475            0   -18273.173   -6052.2336 
Loop time of 0.274607 on 12 procs for 11 steps with 1008 atoms

99.9% CPU use with 12 MPI tasks x no OpenMP threads

Minimization stats:
  Stopping criterion = linesearch alpha is zero
  Energy initial, next-to-last, final = 
        -18274.4594755     -18274.4745236     -18274.4745236
  Force two-norm initial, final = 0.58119 0.089278
  Force max component initial, final = 0.0547079 0.00900217
  Final line search alpha, max atom move = 9.53674e-07 8.58514e-09
  Iterations, force evaluations = 11 97

MPI task timing breakdown:
Section |  min time  |  avg time  |  max time  |%varavg| %total
---------------------------------------------------------------
Pair    | 0.095677   | 0.10524    | 0.11033    |   1.1 | 38.32
Kspace  | 0.15187    | 0.15514    | 0.15764    |   0.5 | 56.50
Neigh   | 0          | 0          | 0          |   0.0 |  0.00
Comm    | 0.0097375  | 0.012896   | 0.020003   |   2.5 |  4.70
Output  | 0          | 0          | 0          |   0.0 |  0.00
Modify  | 0          | 0          | 0          |   0.0 |  0.00
Other   |            | 0.001325   |            |       |  0.48

Nlocal:    84 ave 87 max 78 min
Histogram: 1 0 0 0 1 3 0 4 2 1
Nghost:    2616 ave 2641 max 2584 min
Histogram: 2 0 1 2 1 0 0 2 0 4
Neighs:    18669.5 ave 19352 max 17259 min
Histogram: 1 0 0 1 0 2 2 1 2 3

Total # of neighbors = 224034
Ave neighs/atom = 222.256
Neighbor list builds = 0
Dangerous builds = 0
CR_UPDATE- 23.300680	23.300680	23.300680	0.000000	0.000000	0.000000
For k = 3, applying strain of 1
Changing box ...
  triclinic box = (0 0 0) to (23.3007 23.3007 23.3007) with tilt (0 0 0)
WARNING: Resetting reneighboring criteria during minimization (../min.cpp:168)
Ewald initialization ...
  G vector (1/distance) = 0.365055
  estimated absolute RMS force accuracy = 1.94166e-05
  estimated relative force accuracy = 1.34841e-06
  KSpace vectors: actual max1d max3d = 2084 10 4630
                  kxmax kymax kzmax  = 10 10 10
Setting up cg style minimization ...
  Unit style: metal
Memory usage per processor = 4.56159 Mbytes
Step Temp E_pair E_mol TotEng Press 
     127           10   -18274.378            0   -18273.076   -8528.8534 
     128           10   -18274.378            0   -18273.076   -8528.8534 
Loop time of 0.0674201 on 12 procs for 1 steps with 1008 atoms

100.1% CPU use with 12 MPI tasks x no OpenMP threads

Minimization stats:
  Stopping criterion = linesearch alpha is zero
  Energy initial, next-to-last, final = 
        -18274.3778955     -18274.3778955     -18274.3778955
  Force two-norm initial, final = 0.00469931 0.00469931
  Force max component initial, final = 0.000339568 0.000339568
  Final line search alpha, max atom move = 0.000488281 1.65805e-07
  Iterations, force evaluations = 1 23

MPI task timing breakdown:
Section |  min time  |  avg time  |  max time  |%varavg| %total
---------------------------------------------------------------
Pair    | 0.023353   | 0.025793   | 0.02722    |   0.6 | 38.26
Kspace  | 0.037327   | 0.038182   | 0.038904   |   0.3 | 56.63
Neigh   | 0          | 0          | 0          |   0.0 |  0.00
Comm    | 0.0023448  | 0.0031273  | 0.0048552  |   1.2 |  4.64
Output  | 0          | 0          | 0          |   0.0 |  0.00
Modify  | 0          | 0          | 0          |   0.0 |  0.00
Other   |            | 0.0003169  |            |       |  0.47

Nlocal:    84 ave 87 max 78 min
Histogram: 1 0 0 0 1 3 0 4 2 1
Nghost:    2607.75 ave 2637 max 2579 min
Histogram: 2 1 0 2 2 0 0 3 0 2
Neighs:    18636.9 ave 19316 max 17221 min
Histogram: 1 0 0 1 0 2 2 1 2 3

Total # of neighbors = 223643
Ave neighs/atom = 221.868
Neighbor list builds = 0
Dangerous builds = 0
CR_UPDATE- 23.300680	23.300680	23.300680	0.000000	0.000000	0.000000
For k = 4, applying strain of 1.00167
Changing box ...
  triclinic box = (0 -0.0194211 0) to (23.3007 23.3201 23.3007) with tilt (0 0 0)
WARNING: Resetting reneighboring criteria during minimization (../min.cpp:168)
Ewald initialization ...
  G vector (1/distance) = 0.365044
  estimated absolute RMS force accuracy = 1.94944e-05
  estimated relative force accuracy = 1.35381e-06
  KSpace vectors: actual max1d max3d = 2084 10 4630
                  kxmax kymax kzmax  = 10 10 10
Setting up cg style minimization ...
  Unit style: metal
Memory usage per processor = 4.56159 Mbytes
Step Temp E_pair E_mol TotEng Press 
     128           10   -18274.211            0   -18272.909   -12009.502 
     141           10   -18274.227            0   -18272.925   -10931.004 
Loop time of 0.179094 on 12 procs for 13 steps with 1008 atoms

99.8% CPU use with 12 MPI tasks x no OpenMP threads

Minimization stats:
  Stopping criterion = linesearch alpha is zero
  Energy initial, next-to-last, final = 
        -18274.2106498     -18274.2267984     -18274.2267984
  Force two-norm initial, final = 0.577694 0.0724976
  Force max component initial, final = 0.0537588 0.00616443
  Final line search alpha, max atom move = 1.90735e-06 1.17577e-08
  Iterations, force evaluations = 13 63

MPI task timing breakdown:
Section |  min time  |  avg time  |  max time  |%varavg| %total
---------------------------------------------------------------
Pair    | 0.061567   | 0.068437   | 0.071592   |   1.0 | 38.21
Kspace  | 0.099705   | 0.1014     | 0.10368    |   0.3 | 56.62
Neigh   | 0          | 0          | 0          |   0.0 |  0.00
Comm    | 0.006218   | 0.0083224  | 0.01297    |   2.0 |  4.65
Output  | 0          | 0          | 0          |   0.0 |  0.00
Modify  | 0          | 0          | 0          |   0.0 |  0.00
Other   |            | 0.0009348  |            |       |  0.52

Nlocal:    84 ave 87 max 78 min
Histogram: 1 0 0 0 1 3 0 4 2 1
Nghost:    2602.75 ave 2633 max 2575 min
Histogram: 2 1 1 2 1 0 0 3 0 2
Neighs:    18606.6 ave 19281 max 17190 min
Histogram: 1 0 0 1 0 2 2 1 2 3

Total # of neighbors = 223279
Ave neighs/atom = 221.507
Neighbor list builds = 0
Dangerous builds = 0
CR_UPDATE- 23.300680	23.300680	23.300680	0.000000	0.000000	0.000000
For k = 5, applying strain of 1.00333
Changing box ...
  triclinic box = (0 -0.0388306 0) to (23.3007 23.3395 23.3007) with tilt (0 0 0)
WARNING: Resetting reneighboring criteria during minimization (../min.cpp:168)
Ewald initialization ...
  G vector (1/distance) = 0.365032
  estimated absolute RMS force accuracy = 1.95788e-05
  estimated relative force accuracy = 1.35968e-06
  KSpace vectors: actual max1d max3d = 2084 10 4630
                  kxmax kymax kzmax  = 10 10 10
Setting up cg style minimization ...
  Unit style: metal
Memory usage per processor = 4.56159 Mbytes
Step Temp E_pair E_mol TotEng Press 
     141           10   -18273.962            0   -18272.661   -15451.278 
     150           10   -18274.021            0   -18272.719   -13389.904 
     160           10   -18274.026            0   -18272.724   -13247.717 
Loop time of 0.218292 on 12 procs for 19 steps with 1008 atoms

99.9% CPU use with 12 MPI tasks x no OpenMP threads

Minimization stats:
  Stopping criterion = linesearch alpha is zero
  Energy initial, next-to-last, final = 
        -18273.9621688     -18274.0259816     -18274.0259816
  Force two-norm initial, final = 1.14725 0.0817563
  Force max component initial, final = 0.106922 0.00699814
  Final line search alpha, max atom move = 9.53674e-07 6.67395e-09
  Iterations, force evaluations = 19 77

MPI task timing breakdown:
Section |  min time  |  avg time  |  max time  |%varavg| %total
---------------------------------------------------------------
Pair    | 0.075626   | 0.083472   | 0.086988   |   1.1 | 38.24
Kspace  | 0.12111    | 0.12357    | 0.12585    |   0.4 | 56.61
Neigh   | 0          | 0          | 0          |   0.0 |  0.00
Comm    | 0.0075016  | 0.010073   | 0.015692   |   2.2 |  4.61
Output  | 1.812e-05  | 1.8775e-05 | 2.2173e-05 |   0.0 |  0.01
Modify  | 0          | 0          | 0          |   0.0 |  0.00
Other   |            | 0.001161   |            |       |  0.53

Nlocal:    84 ave 87 max 78 min
Histogram: 1 0 0 0 1 3 0 4 2 1
Nghost:    2598.75 ave 2629 max 2569 min
Histogram: 2 1 1 1 1 1 0 1 2 2
Neighs:    18574.2 ave 19244 max 17155 min
Histogram: 1 0 0 1 0 2 2 1 2 3

Total # of neighbors = 222890
Ave neighs/atom = 221.121
Neighbor list builds = 0
Dangerous builds = 0
CR_UPDATE- 23.300680	23.300680	23.300680	0.000000	0.000000	0.000000
For k = 6, applying strain of 1.005
Changing box ...
  triclinic box = (0 -0.0582517 0) to (23.3007 23.3589 23.3007) with tilt (0 0 0)
WARNING: Resetting reneighboring criteria during minimization (../min.cpp:168)
Ewald initialization ...
  G vector (1/distance) = 0.365021
  estimated absolute RMS force accuracy = 1.96704e-05
  estimated relative force accuracy = 1.36604e-06
  KSpace vectors: actual max1d max3d = 2084 10 4630
                  kxmax kymax kzmax  = 10 10 10
Setting up cg style minimization ...
  Unit style: metal
Memory usage per processor = 4.56159 Mbytes
Step Temp E_pair E_mol TotEng Press 
     160           10   -18273.635            0   -18272.334   -18859.376 
     176           10   -18273.769            0   -18272.467   -15599.624 
Loop time of 0.212613 on 12 procs for 16 steps with 1008 atoms

99.9% CPU use with 12 MPI tasks x no OpenMP threads

Minimization stats:
  Stopping criterion = linesearch alpha is zero
  Energy initial, next-to-last, final = 
        -18273.6352767     -18273.7686492     -18273.7686492
  Force two-norm initial, final = 1.71099 0.161783
  Force max component initial, final = 0.159465 0.0183723
  Final line search alpha, max atom move = 2.38419e-07 4.38031e-09
  Iterations, force evaluations = 16 75

MPI task timing breakdown:
Section |  min time  |  avg time  |  max time  |%varavg| %total
---------------------------------------------------------------
Pair    | 0.073638   | 0.081158   | 0.085216   |   1.0 | 38.17
Kspace  | 0.11813    | 0.12046    | 0.12258    |   0.4 | 56.65
Neigh   | 0          | 0          | 0          |   0.0 |  0.00
Comm    | 0.0073798  | 0.0098807  | 0.01532    |   2.2 |  4.65
Output  | 0          | 0          | 0          |   0.0 |  0.00
Modify  | 0          | 0          | 0          |   0.0 |  0.00
Other   |            | 0.001119   |            |       |  0.53

Nlocal:    84 ave 87 max 78 min
Histogram: 1 0 0 0 1 3 0 4 2 1
Nghost:    2596.75 ave 2628 max 2565 min
Histogram: 1 3 0 1 1 1 0 2 1 2
Neighs:    18539.8 ave 19210 max 17125 min
Histogram: 1 0 0 1 0 2 2 1 2 3

Total # of neighbors = 222478
Ave neighs/atom = 220.712
Neighbor list builds = 0
Dangerous builds = 0
CR_UPDATE- 23.300680	23.300680	23.300680	0.000000	0.000000	0.000000
For k = 0, applying strain of 0.995
Changing box ...
  triclinic box = (0 0 0.0582517) to (23.3007 23.3007 23.2424) with tilt (0 0 0)
WARNING: Resetting reneighboring criteria during minimization (../min.cpp:168)
Ewald initialization ...
  G vector (1/distance) = 0.365089
  estimated absolute RMS force accuracy = 1.92191e-05
  estimated relative force accuracy = 1.33469e-06
  KSpace vectors: actual max1d max3d = 2088 10 4630
                  kxmax kymax kzmax  = 10 10 10
Setting up cg style minimization ...
  Unit style: metal
Memory usage per processor = 4.56159 Mbytes
Step Temp E_pair E_mol TotEng Press 
     176           10   -18274.443            0   -18273.142    1945.7325 
     200           10   -18274.595            0   -18273.294   -1750.2476 
     202           10   -18274.596            0   -18273.294   -1757.7689 
Loop time of 0.258834 on 12 procs for 26 steps with 1008 atoms

99.8% CPU use with 12 MPI tasks x no OpenMP threads

Minimization stats:
  Stopping criterion = linesearch alpha is zero
  Energy initial, next-to-last, final = 
        -18274.4433196     -18274.5960005     -18274.5960005
  Force two-norm initial, final = 1.88452 0.0927299
  Force max component initial, final = 0.161586 0.00773174
  Final line search alpha, max atom move = 9.53674e-07 7.37356e-09
  Iterations, force evaluations = 26 91

MPI task timing breakdown:
Section |  min time  |  avg time  |  max time  |%varavg| %total
---------------------------------------------------------------
Pair    | 0.090119   | 0.099556   | 0.10428    |   1.2 | 38.46
Kspace  | 0.14312    | 0.14574    | 0.14865    |   0.4 | 56.31
Neigh   | 0          | 0          | 0          |   0.0 |  0.00
Comm    | 0.0091126  | 0.012124   | 0.018678   |   2.4 |  4.68
Output  | 1.9073e-05 | 1.963e-05  | 2.1935e-05 |   0.0 |  0.01
Modify  | 0          | 0          | 0          |   0.0 |  0.00
Other   |            | 0.001397   |            |       |  0.54

Nlocal:    84 ave 87 max 78 min
Histogram: 1 0 0 0 1 3 0 4 2 1
Nghost:    2615.75 ave 2641 max 2592 min
Histogram: 3 0 2 1 0 1 0 2 1 2
Neighs:    18728.6 ave 19420 max 17304 min
Histogram: 1 0 0 1 0 2 2 1 2 3

Total # of neighbors = 224743
Ave neighs/atom = 222.959
Neighbor list builds = 0
Dangerous builds = 0
CR_UPDATE- 23.300680	23.300680	23.300680	0.000000	0.000000	0.000000
For k = 1, applying strain of 0.996667
Changing box ...
  triclinic box = (0 0 0.0388306) to (23.3007 23.3007 23.2618) with tilt (0 0 0)
WARNING: Resetting reneighboring criteria during minimization (../min.cpp:168)
Ewald initialization ...
  G vector (1/distance) = 0.365078
  estimated absolute RMS force accuracy = 1.92793e-05
  estimated relative force accuracy = 1.33888e-06
  KSpace vectors: actual max1d max3d = 2084 10 4630
                  kxmax kymax kzmax  = 10 10 10
Setting up cg style minimization ...
  Unit style: metal
Memory usage per processor = 4.56159 Mbytes
Step Temp E_pair E_mol TotEng Press 
     202           10   -18274.501            0   -18273.199   -1582.5282 
     216           10   -18274.569            0   -18273.267   -3913.2845 
Loop time of 0.196287 on 12 procs for 14 steps with 1008 atoms

99.5% CPU use with 12 MPI tasks x no OpenMP threads

Minimization stats:
  Stopping criterion = linesearch alpha is zero
  Energy initial, next-to-last, final = 
        -18274.5007806      -18274.568692      -18274.568692
  Force two-norm initial, final = 1.24881 0.143792
  Force max component initial, final = 0.10709 0.0133756
  Final line search alpha, max atom move = 4.76837e-07 6.378e-09
  Iterations, force evaluations = 14 69

MPI task timing breakdown:
Section |  min time  |  avg time  |  max time  |%varavg| %total
---------------------------------------------------------------
Pair    | 0.068193   | 0.0755     | 0.078905   |   1.0 | 38.46
Kspace  | 0.10885    | 0.11064    | 0.11296    |   0.4 | 56.37
Neigh   | 0          | 0          | 0          |   0.0 |  0.00
Comm    | 0.006834   | 0.0091358  | 0.014157   |   2.1 |  4.65
Output  | 0          | 0          | 0          |   0.0 |  0.00
Modify  | 0          | 0          | 0          |   0.0 |  0.00
Other   |            | 0.001009   |            |       |  0.51

Nlocal:    84 ave 87 max 78 min
Histogram: 1 0 0 0 1 3 0 4 2 1
Nghost:    2613.75 ave 2640 max 2586 min
Histogram: 2 1 1 2 0 1 0 2 1 2
Neighs:    18699.4 ave 19388 max 17291 min
Histogram: 1 0 0 1 0 2 2 1 2 3

Total # of neighbors = 224393
Ave neighs/atom = 222.612
Neighbor list builds = 0
Dangerous builds = 0
CR_UPDATE- 23.300680	23.300680	23.300680	0.000000	0.000000	0.000000
For k = 2, applying strain of 0.998333
Changing box ...
  triclinic box = (0 0 0.0194211) to (23.3007 23.3007 23.2813) with tilt (0 0 0)
WARNING: Resetting reneighboring criteria during minimization (../min.cpp:168)
Ewald initialization ...
  G vector (1/distance) = 0.365066
  estimated absolute RMS force accuracy = 1.9345e-05
  estimated relative force accuracy = 1.34344e-06
  KSpace vectors: actual max1d max3d = 2084 10 4630
                  kxmax kymax kzmax  = 10 10 10
Setting up cg style minimization ...
  Unit style: metal
Memory usage per processor = 4.56159 Mbytes
Step Temp E_pair E_mol TotEng Press 
     216           10   -18274.479            0   -18273.178   -5072.6991 
     229           10     -18274.5            0   -18273.198   -6219.2289 
Loop time of 0.179365 on 12 procs for 13 steps with 1008 atoms

99.7% CPU use with 12 MPI tasks x no OpenMP threads

Minimization stats:
  Stopping criterion = linesearch alpha is zero
  Energy initial, next-to-last, final = 
        -18274.4792095     -18274.4997782     -18274.4997782
  Force two-norm initial, final = 0.620461 0.0765753
  Force max component initial, final = 0.053327 0.00748735
  Final line search alpha, max atom move = 1.90735e-06 1.4281e-08
  Iterations, force evaluations = 13 63

MPI task timing breakdown:
Section |  min time  |  avg time  |  max time  |%varavg| %total
---------------------------------------------------------------
Pair    | 0.06253    | 0.068753   | 0.071502   |   0.9 | 38.33
Kspace  | 0.099621   | 0.10135    | 0.10302    |   0.3 | 56.50
Neigh   | 0          | 0          | 0          |   0.0 |  0.00
Comm    | 0.0062008  | 0.0083208  | 0.012921   |   2.0 |  4.64
Output  | 0          | 0          | 0          |   0.0 |  0.00
Modify  | 0          | 0          | 0          |   0.0 |  0.00
Other   |            | 0.0009454  |            |       |  0.53

Nlocal:    84 ave 87 max 78 min
Histogram: 1 0 0 0 1 3 0 4 2 1
Nghost:    2611.5 ave 2640 max 2583 min
Histogram: 2 1 1 1 1 1 0 2 1 2
Neighs:    18668.6 ave 19354 max 17258 min
Histogram: 1 0 0 1 0 2 2 1 2 3

Total # of neighbors = 224023
Ave neighs/atom = 222.245
Neighbor list builds = 0
Dangerous builds = 0
CR_UPDATE- 23.300680	23.300680	23.300680	0.000000	0.000000	0.000000
For k = 3, applying strain of 1
Changing box ...
  triclinic box = (0 0 0) to (23.3007 23.3007 23.3007) with tilt (0 0 0)
WARNING: Resetting reneighboring criteria during minimization (../min.cpp:168)
Ewald initialization ...
  G vector (1/distance) = 0.365055
  estimated absolute RMS force accuracy = 1.94166e-05
  estimated relative force accuracy = 1.34841e-06
  KSpace vectors: actual max1d max3d = 2084 10 4630
                  kxmax kymax kzmax  = 10 10 10
Setting up cg style minimization ...
  Unit style: metal
Memory usage per processor = 4.56159 Mbytes
Step Temp E_pair E_mol TotEng Press 
     229           10   -18274.378            0   -18273.076   -8528.8534 
     230           10   -18274.378            0   -18273.076   -8528.8534 
Loop time of 0.067221 on 12 procs for 1 steps with 1008 atoms

99.7% CPU use with 12 MPI tasks x no OpenMP threads

Minimization stats:
  Stopping criterion = linesearch alpha is zero
  Energy initial, next-to-last, final = 
        -18274.3778955     -18274.3778955     -18274.3778955
  Force two-norm initial, final = 0.00469931 0.00469931
  Force max component initial, final = 0.000339568 0.000339568
  Final line search alpha, max atom move = 0.000488281 1.65805e-07
  Iterations, force evaluations = 1 23

MPI task timing breakdown:
Section |  min time  |  avg time  |  max time  |%varavg| %total
---------------------------------------------------------------
Pair    | 0.023351   | 0.025733   | 0.027069   |   0.6 | 38.28
Kspace  | 0.03732    | 0.03809    | 0.038755   |   0.2 | 56.66
Neigh   | 0          | 0          | 0          |   0.0 |  0.00
Comm    | 0.0023067  | 0.0030847  | 0.0048199  |   1.2 |  4.59
Output  | 0          | 0          | 0          |   0.0 |  0.00
Modify  | 0          | 0          | 0          |   0.0 |  0.00
Other   |            | 0.0003135  |            |       |  0.47

Nlocal:    84 ave 87 max 78 min
Histogram: 1 0 0 0 1 3 0 4 2 1
Nghost:    2607.75 ave 2637 max 2579 min
Histogram: 2 1 0 2 2 0 0 3 0 2
Neighs:    18636.9 ave 19316 max 17221 min
Histogram: 1 0 0 1 0 2 2 1 2 3

Total # of neighbors = 223643
Ave neighs/atom = 221.868
Neighbor list builds = 0
Dangerous builds = 0
CR_UPDATE- 23.300680	23.300680	23.300680	0.000000	0.000000	0.000000
For k = 4, applying strain of 1.00167
Changing box ...
  triclinic box = (0 0 -0.0194211) to (23.3007 23.3007 23.3201) with tilt (0 0 0)
WARNING: Resetting reneighboring criteria during minimization (../min.cpp:168)
Ewald initialization ...
  G vector (1/distance) = 0.365044
  estimated absolute RMS force accuracy = 1.94944e-05
  estimated relative force accuracy = 1.35381e-06
  KSpace vectors: actual max1d max3d = 2084 10 4630
                  kxmax kymax kzmax  = 10 10 10
Setting up cg style minimization ...
  Unit style: metal
Memory usage per processor = 4.56159 Mbytes
Step Temp E_pair E_mol TotEng Press 
     230           10    -18274.19            0   -18272.889   -11947.433 
     243           10   -18274.208            0   -18272.906   -10805.479 
Loop time of 0.290478 on 12 procs for 13 steps with 1008 atoms

99.8% CPU use with 12 MPI tasks x no OpenMP threads

Minimization stats:
  Stopping criterion = linesearch alpha is zero
  Energy initial, next-to-last, final = 
        -18274.1904106     -18274.2080028     -18274.2080028
  Force two-norm initial, final = 0.616454 0.0788466
  Force max component initial, final = 0.0523721 0.00804791
  Final line search alpha, max atom move = 1.90735e-06 1.53502e-08
  Iterations, force evaluations = 13 103

MPI task timing breakdown:
Section |  min time  |  avg time  |  max time  |%varavg| %total
---------------------------------------------------------------
Pair    | 0.10038    | 0.11126    | 0.11636    |   1.2 | 38.30
Kspace  | 0.16159    | 0.16429    | 0.16778    |   0.5 | 56.56
Neigh   | 0          | 0          | 0          |   0.0 |  0.00
Comm    | 0.010125   | 0.013515   | 0.020977   |   2.5 |  4.65
Output  | 0          | 0          | 0          |   0.0 |  0.00
Modify  | 0          | 0          | 0          |   0.0 |  0.00
Other   |            | 0.001414   |            |       |  0.49

Nlocal:    84 ave 87 max 78 min
Histogram: 1 0 0 0 1 3 0 4 2 1
Nghost:    2600.5 ave 2631 max 2565 min
Histogram: 2 0 1 0 2 2 0 3 0 2
Neighs:    18606.8 ave 19288 max 17183 min
Histogram: 1 0 0 1 0 2 2 1 2 3

Total # of neighbors = 223281
Ave neighs/atom = 221.509
Neighbor list builds = 0
Dangerous builds = 0
CR_UPDATE- 23.300680	23.300680	23.300680	0.000000	0.000000	0.000000
For k = 5, applying strain of 1.00333
Changing box ...
  triclinic box = (0 0 -0.0388306) to (23.3007 23.3007 23.3395) with tilt (0 0 0)
WARNING: Resetting reneighboring criteria during minimization (../min.cpp:168)
Ewald initialization ...
  G vector (1/distance) = 0.365032
  estimated absolute RMS force accuracy = 1.95788e-05
  estimated relative force accuracy = 1.35968e-06
  KSpace vectors: actual max1d max3d = 2084 10 4630
                  kxmax kymax kzmax  = 10 10 10
Setting up cg style minimization ...
  Unit style: metal
Memory usage per processor = 4.56159 Mbytes
Step Temp E_pair E_mol TotEng Press 
     243           10   -18273.925            0   -18272.624   -15328.741 
     250           10   -18273.984            0   -18272.683   -13227.804 
     253           10   -18273.987            0   -18272.685   -13125.029 
Loop time of 0.179001 on 12 procs for 10 steps with 1008 atoms

100.0% CPU use with 12 MPI tasks x no OpenMP threads

Minimization stats:
  Stopping criterion = linesearch alpha is zero
  Energy initial, next-to-last, final = 
        -18273.9254435     -18273.9870717     -18273.9870717
  Force two-norm initial, final = 1.22447 0.210122
  Force max component initial, final = 0.104077 0.0166028
  Final line search alpha, max atom move = 2.38419e-07 3.95842e-09
  Iterations, force evaluations = 10 63

MPI task timing breakdown:
Section |  min time  |  avg time  |  max time  |%varavg| %total
---------------------------------------------------------------
Pair    | 0.061799   | 0.068323   | 0.071697   |   1.0 | 38.17
Kspace  | 0.099622   | 0.10153    | 0.10349    |   0.3 | 56.72
Neigh   | 0          | 0          | 0          |   0.0 |  0.00
Comm    | 0.0061574  | 0.0082383  | 0.012849   |   2.0 |  4.60
Output  | 1.8835e-05 | 1.9928e-05 | 2.2888e-05 |   0.0 |  0.01
Modify  | 0          | 0          | 0          |   0.0 |  0.00
Other   |            | 0.0008932  |            |       |  0.50

Nlocal:    84 ave 87 max 78 min
Histogram: 1 0 0 0 1 3 0 4 2 1
Nghost:    2597.75 ave 2628 max 2563 min
Histogram: 2 0 1 1 2 1 0 3 0 2
Neighs:    18574.8 ave 19260 max 17157 min
Histogram: 1 0 0 1 0 2 2 1 2 3

Total # of neighbors = 222897
Ave neighs/atom = 221.128
Neighbor list builds = 0
Dangerous builds = 0
CR_UPDATE- 23.300680	23.300680	23.300680	0.000000	0.000000	0.000000
For k = 6, applying strain of 1.005
Changing box ...
  triclinic box = (0 0 -0.0582517) to (23.3007 23.3007 23.3589) with tilt (0 0 0)
WARNING: Resetting reneighboring criteria during minimization (../min.cpp:168)
Ewald initialization ...
  G vector (1/distance) = 0.365021
  estimated absolute RMS force accuracy = 1.96704e-05
  estimated relative force accuracy = 1.36604e-06
  KSpace vectors: actual max1d max3d = 2084 10 4630
                  kxmax kymax kzmax  = 10 10 10
Setting up cg style minimization ...
  Unit style: metal
Memory usage per processor = 4.56159 Mbytes
Step Temp E_pair E_mol TotEng Press 
     253           10   -18273.581            0    -18272.28   -18676.512 
     270           10   -18273.728            0   -18272.426   -15157.425 
Loop time of 0.218451 on 12 procs for 17 steps with 1008 atoms

99.7% CPU use with 12 MPI tasks x no OpenMP threads

Minimization stats:
  Stopping criterion = linesearch alpha is zero
  Energy initial, next-to-last, final = 
        -18273.5813093     -18273.7277394     -18273.7277394
  Force two-norm initial, final = 1.82632 0.172669
  Force max component initial, final = 0.155138 0.0191232
  Final line search alpha, max atom move = 2.38419e-07 4.55932e-09
  Iterations, force evaluations = 17 77

MPI task timing breakdown:
Section |  min time  |  avg time  |  max time  |%varavg| %total
---------------------------------------------------------------
Pair    | 0.075875   | 0.083439   | 0.087393   |   1.0 | 38.20
Kspace  | 0.12144    | 0.12358    | 0.12557    |   0.4 | 56.57
Neigh   | 0          | 0          | 0          |   0.0 |  0.00
Comm    | 0.0077295  | 0.010284   | 0.015913   |   2.2 |  4.71
Output  | 0          | 0          | 0          |   0.0 |  0.00
Modify  | 0          | 0          | 0          |   0.0 |  0.00
Other   |            | 0.001145   |            |       |  0.52

Nlocal:    84 ave 87 max 78 min
Histogram: 1 0 0 0 1 3 0 4 2 1
Nghost:    2590.5 ave 2625 max 2555 min
Histogram: 2 0 0 3 0 2 0 4 0 1
Neighs:    18542.8 ave 19222 max 17128 min
Histogram: 1 0 0 1 0 2 2 1 2 3

Total # of neighbors = 222513
Ave neighs/atom = 220.747
Neighbor list builds = 0
Dangerous builds = 0
CR_UPDATE- 23.300680	23.300680	23.300680	0.000000	0.000000	0.000000
For k = 0, applying strain of 0.995
Changing box ...
  triclinic box = (0 0 0) to (23.3007 23.3007 23.3007) with tilt (-0.116503 0 0)
WARNING: Resetting reneighboring criteria during minimization (../min.cpp:168)
Ewald initialization ...
  G vector (1/distance) = 0.365055
  estimated absolute RMS force accuracy = 1.94166e-05
  estimated relative force accuracy = 1.34841e-06
  KSpace vectors: actual max1d max3d = 2079 10 4630
                  kxmax kymax kzmax  = 10 10 10
Setting up cg style minimization ...
  Unit style: metal
Memory usage per processor = 4.56159 Mbytes
Step Temp E_pair E_mol TotEng Press 
     270           10   -18274.182            0    -18272.88   -8508.2166 
     284           10   -18274.239            0   -18272.937   -8525.0772 
Loop time of 0.19609 on 12 procs for 14 steps with 1008 atoms

99.7% CPU use with 12 MPI tasks x no OpenMP threads

Minimization stats:
  Stopping criterion = linesearch alpha is zero
  Energy initial, next-to-last, final = 
        -18274.1815288     -18274.2389066     -18274.2389066
  Force two-norm initial, final = 1.21751 0.147774
  Force max component initial, final = 0.12522 0.0122885
  Final line search alpha, max atom move = 4.76837e-07 5.85962e-09
  Iterations, force evaluations = 14 69

MPI task timing breakdown:
Section |  min time  |  avg time  |  max time  |%varavg| %total
---------------------------------------------------------------
Pair    | 0.067986   | 0.0751     | 0.078874   |   1.0 | 38.30
Kspace  | 0.1087     | 0.11086    | 0.11295    |   0.4 | 56.54
Neigh   | 0          | 0          | 0          |   0.0 |  0.00
Comm    | 0.0068815  | 0.009124   | 0.014203   |   2.1 |  4.65
Output  | 0          | 0          | 0          |   0.0 |  0.00
Modify  | 0          | 0          | 0          |   0.0 |  0.00
Other   |            | 0.001004   |            |       |  0.51

Nlocal:    84 ave 87 max 78 min
Histogram: 1 0 0 0 1 3 0 4 2 1
Nghost:    2607.75 ave 2637 max 2579 min
Histogram: 2 1 0 2 2 0 0 3 0 2
Neighs:    18635.7 ave 19312 max 17222 min
Histogram: 1 0 0 1 0 2 2 1 2 3

Total # of neighbors = 223628
Ave neighs/atom = 221.853
Neighbor list builds = 0
Dangerous builds = 0
CR_UPDATE- 23.300680	23.300680	23.300680	0.000000	0.000000	0.000000
For k = 1, applying strain of 0.996667
Changing box ...
  triclinic box = (0 0 0) to (23.3007 23.3007 23.3007) with tilt (-0.077661 0 0)
WARNING: Resetting reneighboring criteria during minimization (../min.cpp:168)
Ewald initialization ...
  G vector (1/distance) = 0.365055
  estimated absolute RMS force accuracy = 1.94166e-05
  estimated relative force accuracy = 1.34841e-06
  KSpace vectors: actual max1d max3d = 2081 10 4630
                  kxmax kymax kzmax  = 10 10 10
Setting up cg style minimization ...
  Unit style: metal
Memory usage per processor = 4.56159 Mbytes
Step Temp E_pair E_mol TotEng Press 
     284           10   -18274.274            0   -18272.973   -8519.5526 
     300           10   -18274.301            0   -18272.999   -8521.4833 
Loop time of 0.313959 on 12 procs for 16 steps with 1008 atoms

99.8% CPU use with 12 MPI tasks x no OpenMP threads

Minimization stats:
  Stopping criterion = linesearch alpha is zero
  Energy initial, next-to-last, final = 
        -18274.2741621     -18274.3008887     -18274.3008887
  Force two-norm initial, final = 0.811638 0.0889748
  Force max component initial, final = 0.0833881 0.0103308
  Final line search alpha, max atom move = 9.53674e-07 9.85225e-09
  Iterations, force evaluations = 16 111

MPI task timing breakdown:
Section |  min time  |  avg time  |  max time  |%varavg| %total
---------------------------------------------------------------
Pair    | 0.10894    | 0.12044    | 0.12552    |   1.2 | 38.36
Kspace  | 0.17487    | 0.17738    | 0.18093    |   0.4 | 56.50
Neigh   | 0          | 0          | 0          |   0.0 |  0.00
Comm    | 0.010964   | 0.014621   | 0.022644   |   2.6 |  4.66
Output  | 0          | 0          | 0          |   0.0 |  0.00
Modify  | 0          | 0          | 0          |   0.0 |  0.00
Other   |            | 0.001519   |            |       |  0.48

Nlocal:    84 ave 87 max 78 min
Histogram: 1 0 0 0 1 3 0 4 2 1
Nghost:    2607.75 ave 2637 max 2579 min
Histogram: 2 1 0 2 2 0 0 3 0 2
Neighs:    18636 ave 19317 max 17220 min
Histogram: 1 0 0 1 0 2 2 1 2 3

Total # of neighbors = 223632
Ave neighs/atom = 221.857
Neighbor list builds = 0
Dangerous builds = 0
CR_UPDATE- 23.300680	23.300680	23.300680	0.000000	0.000000	0.000000
For k = 2, applying strain of 0.998333
Changing box ...
  triclinic box = (0 0 0) to (23.3007 23.3007 23.3007) with tilt (-0.038842 0 0)
WARNING: Resetting reneighboring criteria during minimization (../min.cpp:168)
Ewald initialization ...
  G vector (1/distance) = 0.365055
  estimated absolute RMS force accuracy = 1.94166e-05
  estimated relative force accuracy = 1.34841e-06
  KSpace vectors: actual max1d max3d = 2082 10 4630
                  kxmax kymax kzmax  = 10 10 10
Setting up cg style minimization ...
  Unit style: metal
Memory usage per processor = 4.56159 Mbytes
Step Temp E_pair E_mol TotEng Press 
     300           10   -18274.339            0   -18273.037   -8526.3074 
     312           10   -18274.348            0   -18273.047   -8522.5617 
Loop time of 0.168018 on 12 procs for 12 steps with 1008 atoms

99.9% CPU use with 12 MPI tasks x no OpenMP threads

Minimization stats:
  Stopping criterion = linesearch alpha is zero
  Energy initial, next-to-last, final = 
        -18274.3390795     -18274.3482267     -18274.3482267
  Force two-norm initial, final = 0.405996 0.0568936
  Force max component initial, final = 0.0416714 0.00492184
  Final line search alpha, max atom move = 3.8147e-06 1.87753e-08
  Iterations, force evaluations = 12 59

MPI task timing breakdown:
Section |  min time  |  avg time  |  max time  |%varavg| %total
---------------------------------------------------------------
Pair    | 0.058336   | 0.064404   | 0.067594   |   1.0 | 38.33
Kspace  | 0.092933   | 0.094962   | 0.096768   |   0.4 | 56.52
Neigh   | 0          | 0          | 0          |   0.0 |  0.00
Comm    | 0.00581    | 0.0077911  | 0.012078   |   1.9 |  4.64
Output  | 0          | 0          | 0          |   0.0 |  0.00
Modify  | 0          | 0          | 0          |   0.0 |  0.00
Other   |            | 0.0008606  |            |       |  0.51

Nlocal:    84 ave 87 max 78 min
Histogram: 1 0 0 0 1 3 0 4 2 1
Nghost:    2607.75 ave 2637 max 2579 min
Histogram: 2 1 0 2 2 0 0 3 0 2
Neighs:    18636.3 ave 19314 max 17221 min
Histogram: 1 0 0 1 0 2 2 1 2 3

Total # of neighbors = 223636
Ave neighs/atom = 221.861
Neighbor list builds = 0
Dangerous builds = 0
CR_UPDATE- 23.300680	23.300680	23.300680	0.000000	0.000000	0.000000
For k = 3, applying strain of 1
Changing box ...
  triclinic box = (0 0 0) to (23.3007 23.3007 23.3007) with tilt (0 0 0)
WARNING: Resetting reneighboring criteria during minimization (../min.cpp:168)
Ewald initialization ...
  G vector (1/distance) = 0.365055
  estimated absolute RMS force accuracy = 1.94166e-05
  estimated relative force accuracy = 1.34841e-06
  KSpace vectors: actual max1d max3d = 2084 10 4630
                  kxmax kymax kzmax  = 10 10 10
Setting up cg style minimization ...
  Unit style: metal
Memory usage per processor = 4.56159 Mbytes
Step Temp E_pair E_mol TotEng Press 
     312           10   -18274.378            0   -18273.076   -8528.8534 
     313           10   -18274.378            0   -18273.076   -8528.8534 
Loop time of 0.0672735 on 12 procs for 1 steps with 1008 atoms

99.5% CPU use with 12 MPI tasks x no OpenMP threads

Minimization stats:
  Stopping criterion = linesearch alpha is zero
  Energy initial, next-to-last, final = 
        -18274.3778955     -18274.3778955     -18274.3778955
  Force two-norm initial, final = 0.00469931 0.00469931
  Force max component initial, final = 0.000339568 0.000339568
  Final line search alpha, max atom move = 0.000488281 1.65805e-07
  Iterations, force evaluations = 1 23

MPI task timing breakdown:
Section |  min time  |  avg time  |  max time  |%varavg| %total
---------------------------------------------------------------
Pair    | 0.023438   | 0.02579    | 0.027063   |   0.6 | 38.34
Kspace  | 0.037321   | 0.038033   | 0.03865    |   0.2 | 56.53
Neigh   | 0          | 0          | 0          |   0.0 |  0.00
Comm    | 0.0023336  | 0.0031288  | 0.004885   |   1.2 |  4.65
Output  | 0          | 0          | 0          |   0.0 |  0.00
Modify  | 0          | 0          | 0          |   0.0 |  0.00
Other   |            | 0.0003217  |            |       |  0.48

Nlocal:    84 ave 87 max 78 min
Histogram: 1 0 0 0 1 3 0 4 2 1
Nghost:    2607.75 ave 2637 max 2579 min
Histogram: 2 1 0 2 2 0 0 3 0 2
Neighs:    18636.9 ave 19316 max 17221 min
Histogram: 1 0 0 1 0 2 2 1 2 3

Total # of neighbors = 223643
Ave neighs/atom = 221.868
Neighbor list builds = 0
Dangerous builds = 0
CR_UPDATE- 23.300680	23.300680	23.300680	0.000000	0.000000	0.000000
For k = 4, applying strain of 1.00167
Changing box ...
  triclinic box = (0 0 0) to (23.3007 23.3007 23.3007) with tilt (0.038842 0 0)
WARNING: Resetting reneighboring criteria during minimization (../min.cpp:168)
Ewald initialization ...
  G vector (1/distance) = 0.365055
  estimated absolute RMS force accuracy = 1.94166e-05
  estimated relative force accuracy = 1.34841e-06
  KSpace vectors: actual max1d max3d = 2082 10 4630
                  kxmax kymax kzmax  = 10 10 10
Setting up cg style minimization ...
  Unit style: metal
Memory usage per processor = 4.56159 Mbytes
Step Temp E_pair E_mol TotEng Press 
     313           10   -18274.386            0   -18273.084   -8526.0239 
     318           10    -18274.39            0   -18273.089   -8522.5899 
Loop time of 0.145516 on 12 procs for 5 steps with 1008 atoms

99.9% CPU use with 12 MPI tasks x no OpenMP threads

Minimization stats:
  Stopping criterion = linesearch alpha is zero
  Energy initial, next-to-last, final = 
        -18274.3856698     -18274.3904279     -18274.3904279
  Force two-norm initial, final = 0.405746 0.131509
  Force max component initial, final = 0.0414966 0.0150531
  Final line search alpha, max atom move = 4.76837e-07 7.17786e-09
  Iterations, force evaluations = 5 51

MPI task timing breakdown:
Section |  min time  |  avg time  |  max time  |%varavg| %total
---------------------------------------------------------------
Pair    | 0.05027    | 0.055872   | 0.058418   |   0.9 | 38.40
Kspace  | 0.080586   | 0.082242   | 0.084136   |   0.4 | 56.52
Neigh   | 0          | 0          | 0          |   0.0 |  0.00
Comm    | 0.0050309  | 0.0067065  | 0.010451   |   1.8 |  4.61
Output  | 0          | 0          | 0          |   0.0 |  0.00
Modify  | 0          | 0          | 0          |   0.0 |  0.00
Other   |            | 0.0006959  |            |       |  0.48

Nlocal:    84 ave 87 max 78 min
Histogram: 1 0 0 0 1 3 0 4 2 1
Nghost:    2607.75 ave 2637 max 2579 min
Histogram: 2 1 0 2 2 0 0 3 0 2
Neighs:    18638.7 ave 19320 max 17219 min
Histogram: 1 0 0 1 0 2 2 1 2 3

Total # of neighbors = 223664
Ave neighs/atom = 221.889
Neighbor list builds = 0
Dangerous builds = 0
CR_UPDATE- 23.300680	23.300680	23.300680	0.000000	0.000000	0.000000
For k = 5, applying strain of 1.00333
Changing box ...
  triclinic box = (0 0 0) to (23.3007 23.3007 23.3007) with tilt (0.077661 0 0)
WARNING: Resetting reneighboring criteria during minimization (../min.cpp:168)
Ewald initialization ...
  G vector (1/distance) = 0.365055
  estimated absolute RMS force accuracy = 1.94166e-05
  estimated relative force accuracy = 1.34841e-06
  KSpace vectors: actual max1d max3d = 2081 10 4630
                  kxmax kymax kzmax  = 10 10 10
Setting up cg style minimization ...
  Unit style: metal
Memory usage per processor = 4.56159 Mbytes
Step Temp E_pair E_mol TotEng Press 
     318           10   -18274.366            0   -18273.065   -8518.7227 
     333           10   -18274.391            0   -18273.089   -8510.8031 
Loop time of 0.285771 on 12 procs for 15 steps with 1008 atoms

100.0% CPU use with 12 MPI tasks x no OpenMP threads

Minimization stats:
  Stopping criterion = linesearch alpha is zero
  Energy initial, next-to-last, final = 
        -18274.3662158     -18274.3911264     -18274.3911264
  Force two-norm initial, final = 0.81137 0.103793
  Force max component initial, final = 0.0829012 0.0133757
  Final line search alpha, max atom move = 9.53674e-07 1.27561e-08
  Iterations, force evaluations = 15 101

MPI task timing breakdown:
Section |  min time  |  avg time  |  max time  |%varavg| %total
---------------------------------------------------------------
Pair    | 0.09927    | 0.10971    | 0.11532    |   1.2 | 38.39
Kspace  | 0.15824    | 0.16142    | 0.16457    |   0.5 | 56.48
Neigh   | 0          | 0          | 0          |   0.0 |  0.00
Comm    | 0.0099208  | 0.013239   | 0.020604   |   2.5 |  4.63
Output  | 0          | 0          | 0          |   0.0 |  0.00
Modify  | 0          | 0          | 0          |   0.0 |  0.00
Other   |            | 0.001411   |            |       |  0.49

Nlocal:    84 ave 87 max 78 min
Histogram: 1 0 0 0 1 3 0 4 2 1
Nghost:    2607.75 ave 2637 max 2579 min
Histogram: 2 1 0 2 2 0 0 3 0 2
Neighs:    18639.1 ave 19322 max 17216 min
Histogram: 1 0 0 1 0 2 2 1 2 3

Total # of neighbors = 223669
Ave neighs/atom = 221.894
Neighbor list builds = 0
Dangerous builds = 0
CR_UPDATE- 23.300680	23.300680	23.300680	0.000000	0.000000	0.000000
For k = 6, applying strain of 1.005
Changing box ...
  triclinic box = (0 0 0) to (23.3007 23.3007 23.3007) with tilt (0.116503 0 0)
WARNING: Resetting reneighboring criteria during minimization (../min.cpp:168)
Ewald initialization ...
  G vector (1/distance) = 0.365055
  estimated absolute RMS force accuracy = 1.94166e-05
  estimated relative force accuracy = 1.34841e-06
  KSpace vectors: actual max1d max3d = 2079 10 4630
                  kxmax kymax kzmax  = 10 10 10
Setting up cg style minimization ...
  Unit style: metal
Memory usage per processor = 4.56159 Mbytes
Step Temp E_pair E_mol TotEng Press 
     333           10   -18274.317            0   -18273.015   -8506.3213 
     347           10   -18274.374            0   -18273.072   -8503.2735 
Loop time of 0.195768 on 12 procs for 14 steps with 1008 atoms

99.8% CPU use with 12 MPI tasks x no OpenMP threads

Minimization stats:
  Stopping criterion = linesearch alpha is zero
  Energy initial, next-to-last, final = 
        -18274.3170828     -18274.3739191     -18274.3739191
  Force two-norm initial, final = 1.21724 0.155244
  Force max component initial, final = 0.124226 0.0114763
  Final line search alpha, max atom move = 4.76837e-07 5.47234e-09
  Iterations, force evaluations = 14 69

MPI task timing breakdown:
Section |  min time  |  avg time  |  max time  |%varavg| %total
---------------------------------------------------------------
Pair    | 0.067953   | 0.075072   | 0.078606   |   1.0 | 38.35
Kspace  | 0.10865    | 0.11057    | 0.1127     |   0.3 | 56.48
Neigh   | 0          | 0          | 0          |   0.0 |  0.00
Comm    | 0.0067964  | 0.0091021  | 0.014154   |   2.1 |  4.65
Output  | 0          | 0          | 0          |   0.0 |  0.00
Modify  | 0          | 0          | 0          |   0.0 |  0.00
Other   |            | 0.001026   |            |       |  0.52

Nlocal:    84 ave 87 max 78 min
Histogram: 1 0 0 0 1 3 0 4 2 1
Nghost:    2607.75 ave 2637 max 2579 min
Histogram: 2 1 0 2 2 0 0 3 0 2
Neighs:    18639.9 ave 19327 max 17215 min
Histogram: 1 0 0 1 0 2 2 1 2 3

Total # of neighbors = 223679
Ave neighs/atom = 221.904
Neighbor list builds = 0
Dangerous builds = 0
CR_UPDATE- 23.300680	23.300680	23.300680	0.000000	0.000000	0.000000
For k = 0, applying strain of 0.995
Changing box ...
  triclinic box = (0 0 0) to (23.3007 23.3007 23.3007) with tilt (0 -0.116503 0)
WARNING: Resetting reneighboring criteria during minimization (../min.cpp:168)
Ewald initialization ...
  G vector (1/distance) = 0.365055
  estimated absolute RMS force accuracy = 1.94166e-05
  estimated relative force accuracy = 1.34841e-06
  KSpace vectors: actual max1d max3d = 2079 10 4630
                  kxmax kymax kzmax  = 10 10 10
Setting up cg style minimization ...
  Unit style: metal
Memory usage per processor = 4.56159 Mbytes
Step Temp E_pair E_mol TotEng Press 
     347           10   -18274.139            0   -18272.838    -8409.152 
     350           10   -18274.182            0    -18272.88   -8459.1581 
     365           10   -18274.199            0   -18272.898   -8409.8333 
Loop time of 0.213345 on 12 procs for 18 steps with 1008 atoms

99.7% CPU use with 12 MPI tasks x no OpenMP threads

Minimization stats:
  Stopping criterion = linesearch alpha is zero
  Energy initial, next-to-last, final = 
        -18274.1392442     -18274.1993566     -18274.1993566
  Force two-norm initial, final = 1.23477 0.0983394
  Force max component initial, final = 0.112381 0.00804759
  Final line search alpha, max atom move = 9.53674e-07 7.67478e-09
  Iterations, force evaluations = 18 75

MPI task timing breakdown:
Section |  min time  |  avg time  |  max time  |%varavg| %total
---------------------------------------------------------------
Pair    | 0.073562   | 0.081896   | 0.085692   |   1.1 | 38.39
Kspace  | 0.11835    | 0.1204     | 0.12338    |   0.4 | 56.43
Neigh   | 0          | 0          | 0          |   0.0 |  0.00
Comm    | 0.0073998  | 0.0099118  | 0.015337   |   2.1 |  4.65
Output  | 1.9073e-05 | 2.0285e-05 | 2.2173e-05 |   0.0 |  0.01
Modify  | 0          | 0          | 0          |   0.0 |  0.00
Other   |            | 0.001118   |            |       |  0.52

Nlocal:    84 ave 87 max 78 min
Histogram: 1 0 0 0 1 3 0 4 2 1
Nghost:    2607.75 ave 2637 max 2579 min
Histogram: 2 1 0 2 2 0 0 3 0 2
Neighs:    18634.2 ave 19309 max 17213 min
Histogram: 1 0 0 1 0 2 2 1 2 3

Total # of neighbors = 223611
Ave neighs/atom = 221.836
Neighbor list builds = 0
Dangerous builds = 0
CR_UPDATE- 23.300680	23.300680	23.300680	0.000000	0.000000	0.000000
For k = 1, applying strain of 0.996667
Changing box ...
  triclinic box = (0 0 0) to (23.3007 23.3007 23.3007) with tilt (0 -0.077661 0)
WARNING: Resetting reneighboring criteria during minimization (../min.cpp:168)
Ewald initialization ...
  G vector (1/distance) = 0.365055
  estimated absolute RMS force accuracy = 1.94166e-05
  estimated relative force accuracy = 1.34841e-06
  KSpace vectors: actual max1d max3d = 2081 10 4630
                  kxmax kymax kzmax  = 10 10 10
Setting up cg style minimization ...
  Unit style: metal
Memory usage per processor = 4.56159 Mbytes
Step Temp E_pair E_mol TotEng Press 
     365           10   -18274.248            0   -18272.946   -8454.3604 
     381           10   -18274.275            0   -18272.974   -8453.4262 
Loop time of 0.196126 on 12 procs for 16 steps with 1008 atoms

99.8% CPU use with 12 MPI tasks x no OpenMP threads

Minimization stats:
  Stopping criterion = linesearch alpha is zero
  Energy initial, next-to-last, final = 
        -18274.2481206     -18274.2754222     -18274.2754222
  Force two-norm initial, final = 0.823074 0.0778462
  Force max component initial, final = 0.0749602 0.00652926
  Final line search alpha, max atom move = 1.90735e-06 1.24536e-08
  Iterations, force evaluations = 16 69

MPI task timing breakdown:
Section |  min time  |  avg time  |  max time  |%varavg| %total
---------------------------------------------------------------
Pair    | 0.068007   | 0.075096   | 0.078079   |   1.0 | 38.29
Kspace  | 0.10933    | 0.11076    | 0.11289    |   0.3 | 56.47
Neigh   | 0          | 0          | 0          |   0.0 |  0.00
Comm    | 0.0069606  | 0.0092349  | 0.014214   |   2.0 |  4.71
Output  | 0          | 0          | 0          |   0.0 |  0.00
Modify  | 0          | 0          | 0          |   0.0 |  0.00
Other   |            | 0.001037   |            |       |  0.53

Nlocal:    84 ave 87 max 78 min
Histogram: 1 0 0 0 1 3 0 4 2 1
Nghost:    2607.75 ave 2637 max 2579 min
Histogram: 2 1 0 2 2 0 0 3 0 2
Neighs:    18635.6 ave 19316 max 17216 min
Histogram: 1 0 0 1 0 2 2 1 2 3

Total # of neighbors = 223627
Ave neighs/atom = 221.852
Neighbor list builds = 0
Dangerous builds = 0
CR_UPDATE- 23.300680	23.300680	23.300680	0.000000	0.000000	0.000000
For k = 2, applying strain of 0.998333
Changing box ...
  triclinic box = (0 0 0) to (23.3007 23.3007 23.3007) with tilt (0 -0.038842 0)
WARNING: Resetting reneighboring criteria during minimization (../min.cpp:168)
Ewald initialization ...
  G vector (1/distance) = 0.365055
  estimated absolute RMS force accuracy = 1.94166e-05
  estimated relative force accuracy = 1.34841e-06
  KSpace vectors: actual max1d max3d = 2082 10 4630
                  kxmax kymax kzmax  = 10 10 10
Setting up cg style minimization ...
  Unit style: metal
Memory usage per processor = 4.56159 Mbytes
Step Temp E_pair E_mol TotEng Press 
     381           10   -18274.329            0   -18273.027   -8494.4548 
     386           10   -18274.334            0   -18273.032   -8495.8785 
Loop time of 0.146726 on 12 procs for 5 steps with 1008 atoms

99.5% CPU use with 12 MPI tasks x no OpenMP threads

Minimization stats:
  Stopping criterion = linesearch alpha is zero
  Energy initial, next-to-last, final = 
        -18274.3285553     -18274.3341335     -18274.3341335
  Force two-norm initial, final = 0.411673 0.125729
  Force max component initial, final = 0.0375174 0.0111482
  Final line search alpha, max atom move = 4.76837e-07 5.31587e-09
  Iterations, force evaluations = 5 51

MPI task timing breakdown:
Section |  min time  |  avg time  |  max time  |%varavg| %total
---------------------------------------------------------------
Pair    | 0.05019    | 0.056008   | 0.059006   |   1.0 | 38.17
Kspace  | 0.081826   | 0.083232   | 0.085353   |   0.4 | 56.73
Neigh   | 0          | 0          | 0          |   0.0 |  0.00
Comm    | 0.0050831  | 0.0067878  | 0.010508   |   1.8 |  4.63
Output  | 0          | 0          | 0          |   0.0 |  0.00
Modify  | 0          | 0          | 0          |   0.0 |  0.00
Other   |            | 0.0006983  |            |       |  0.48

Nlocal:    84 ave 87 max 78 min
Histogram: 1 0 0 0 1 3 0 4 2 1
Nghost:    2607.75 ave 2637 max 2579 min
Histogram: 2 1 0 2 2 0 0 3 0 2
Neighs:    18635.7 ave 19311 max 17221 min
Histogram: 1 0 0 1 0 2 2 1 2 3

Total # of neighbors = 223628
Ave neighs/atom = 221.853
Neighbor list builds = 0
Dangerous builds = 0
CR_UPDATE- 23.300680	23.300680	23.300680	0.000000	0.000000	0.000000
For k = 3, applying strain of 1
Changing box ...
  triclinic box = (0 0 0) to (23.3007 23.3007 23.3007) with tilt (0 0 0)
WARNING: Resetting reneighboring criteria during minimization (../min.cpp:168)
Ewald initialization ...
  G vector (1/distance) = 0.365055
  estimated absolute RMS force accuracy = 1.94166e-05
  estimated relative force accuracy = 1.34841e-06
  KSpace vectors: actual max1d max3d = 2084 10 4630
                  kxmax kymax kzmax  = 10 10 10
Setting up cg style minimization ...
  Unit style: metal
Memory usage per processor = 4.56159 Mbytes
Step Temp E_pair E_mol TotEng Press 
     386           10   -18274.378            0   -18273.076   -8528.8534 
     387           10   -18274.378            0   -18273.076   -8528.8534 
Loop time of 0.0671871 on 12 procs for 1 steps with 1008 atoms

99.3% CPU use with 12 MPI tasks x no OpenMP threads

Minimization stats:
  Stopping criterion = linesearch alpha is zero
  Energy initial, next-to-last, final = 
        -18274.3778955     -18274.3778955     -18274.3778955
  Force two-norm initial, final = 0.00469931 0.00469931
  Force max component initial, final = 0.000339568 0.000339568
  Final line search alpha, max atom move = 0.000488281 1.65805e-07
  Iterations, force evaluations = 1 23

MPI task timing breakdown:
Section |  min time  |  avg time  |  max time  |%varavg| %total
---------------------------------------------------------------
Pair    | 0.023215   | 0.025764   | 0.026778   |   0.6 | 38.35
Kspace  | 0.037526   | 0.038002   | 0.038854   |   0.2 | 56.56
Neigh   | 0          | 0          | 0          |   0.0 |  0.00
Comm    | 0.0022993  | 0.0031105  | 0.0048177  |   1.2 |  4.63
Output  | 0          | 0          | 0          |   0.0 |  0.00
Modify  | 0          | 0          | 0          |   0.0 |  0.00
Other   |            | 0.0003099  |            |       |  0.46

Nlocal:    84 ave 87 max 78 min
Histogram: 1 0 0 0 1 3 0 4 2 1
Nghost:    2607.75 ave 2637 max 2579 min
Histogram: 2 1 0 2 2 0 0 3 0 2
Neighs:    18636.9 ave 19316 max 17221 min
Histogram: 1 0 0 1 0 2 2 1 2 3

Total # of neighbors = 223643
Ave neighs/atom = 221.868
Neighbor list builds = 0
Dangerous builds = 0
CR_UPDATE- 23.300680	23.300680	23.300680	0.000000	0.000000	0.000000
For k = 4, applying strain of 1.00167
Changing box ...
  triclinic box = (0 0 0) to (23.3007 23.3007 23.3007) with tilt (0 0.038842 0)
WARNING: Resetting reneighboring criteria during minimization (../min.cpp:168)
Ewald initialization ...
  G vector (1/distance) = 0.365055
  estimated absolute RMS force accuracy = 1.94166e-05
  estimated relative force accuracy = 1.34841e-06
  KSpace vectors: actual max1d max3d = 2082 10 4630
                  kxmax kymax kzmax  = 10 10 10
Setting up cg style minimization ...
  Unit style: metal
Memory usage per processor = 4.56159 Mbytes
Step Temp E_pair E_mol TotEng Press 
     387           10   -18274.398            0   -18273.096   -8557.9094 
     400           10   -18274.406            0   -18273.104   -8548.0656 
     403           10   -18274.406            0   -18273.104   -8550.3006 
Loop time of 0.185168 on 12 procs for 16 steps with 1008 atoms

99.9% CPU use with 12 MPI tasks x no OpenMP threads

Minimization stats:
  Stopping criterion = linesearch alpha is zero
  Energy initial, next-to-last, final = 
        -18274.3977121     -18274.4057472     -18274.4057472
  Force two-norm initial, final = 0.411635 0.0392412
  Force max component initial, final = 0.0375618 0.00352483
  Final line search alpha, max atom move = 7.62939e-06 2.68923e-08
  Iterations, force evaluations = 16 65

MPI task timing breakdown:
Section |  min time  |  avg time  |  max time  |%varavg| %total
---------------------------------------------------------------
Pair    | 0.064309   | 0.070951   | 0.074595   |   1.0 | 38.32
Kspace  | 0.10257    | 0.10468    | 0.10666    |   0.3 | 56.53
Neigh   | 0          | 0          | 0          |   0.0 |  0.00
Comm    | 0.0063372  | 0.0085459  | 0.013237   |   2.0 |  4.62
Output  | 1.812e-05  | 1.9491e-05 | 2.2173e-05 |   0.0 |  0.01
Modify  | 0          | 0          | 0          |   0.0 |  0.00
Other   |            | 0.0009686  |            |       |  0.52

Nlocal:    84 ave 87 max 78 min
Histogram: 1 0 0 0 1 3 0 4 2 1
Nghost:    2607.75 ave 2637 max 2579 min
Histogram: 2 1 0 2 2 0 0 3 0 2
Neighs:    18637.2 ave 19319 max 17217 min
Histogram: 1 0 0 1 0 2 2 1 2 3

Total # of neighbors = 223646
Ave neighs/atom = 221.871
Neighbor list builds = 0
Dangerous builds = 0
CR_UPDATE- 23.300680	23.300680	23.300680	0.000000	0.000000	0.000000
For k = 5, applying strain of 1.00333
Changing box ...
  triclinic box = (0 0 0) to (23.3007 23.3007 23.3007) with tilt (0 0.077661 0)
WARNING: Resetting reneighboring criteria during minimization (../min.cpp:168)
Ewald initialization ...
  G vector (1/distance) = 0.365055
  estimated absolute RMS force accuracy = 1.94166e-05
  estimated relative force accuracy = 1.34841e-06
  KSpace vectors: actual max1d max3d = 2081 10 4630
                  kxmax kymax kzmax  = 10 10 10
Setting up cg style minimization ...
  Unit style: metal
Memory usage per processor = 4.56159 Mbytes
Step Temp E_pair E_mol TotEng Press 
     403           10   -18274.393            0   -18273.091   -8582.9891 
     413           10   -18274.417            0   -18273.115   -8580.1606 
Loop time of 0.174828 on 12 procs for 10 steps with 1008 atoms

99.7% CPU use with 12 MPI tasks x no OpenMP threads

Minimization stats:
  Stopping criterion = linesearch alpha is zero
  Energy initial, next-to-last, final = 
        -18274.3929059     -18274.4167392     -18274.4167392
  Force two-norm initial, final = 0.823025 0.136074
  Force max component initial, final = 0.0751458 0.0126312
  Final line search alpha, max atom move = 4.76837e-07 6.02304e-09
  Iterations, force evaluations = 10 61

MPI task timing breakdown:
Section |  min time  |  avg time  |  max time  |%varavg| %total
---------------------------------------------------------------
Pair    | 0.060255   | 0.066477   | 0.069693   |   1.0 | 38.02
Kspace  | 0.097023   | 0.098829   | 0.10063    |   0.4 | 56.53
Neigh   | 0          | 0          | 0          |   0.0 |  0.00
Comm    | 0.0065992  | 0.0086442  | 0.013113   |   1.9 |  4.94
Output  | 0          | 0          | 0          |   0.0 |  0.00
Modify  | 0          | 0          | 0          |   0.0 |  0.00
Other   |            | 0.0008782  |            |       |  0.50

Nlocal:    84 ave 87 max 78 min
Histogram: 1 0 0 0 1 3 0 4 2 1
Nghost:    2607.75 ave 2637 max 2579 min
Histogram: 2 1 0 2 2 0 0 3 0 2
Neighs:    18638.8 ave 19325 max 17220 min
Histogram: 1 0 0 1 0 2 2 1 2 3

Total # of neighbors = 223665
Ave neighs/atom = 221.89
Neighbor list builds = 0
Dangerous builds = 0
CR_UPDATE- 23.300680	23.300680	23.300680	0.000000	0.000000	0.000000
For k = 6, applying strain of 1.005
Changing box ...
  triclinic box = (0 0 0) to (23.3007 23.3007 23.3007) with tilt (0 0.116503 0)
WARNING: Resetting reneighboring criteria during minimization (../min.cpp:168)
Ewald initialization ...
  G vector (1/distance) = 0.365055
  estimated absolute RMS force accuracy = 1.94166e-05
  estimated relative force accuracy = 1.34841e-06
  KSpace vectors: actual max1d max3d = 2079 10 4630
                  kxmax kymax kzmax  = 10 10 10
Setting up cg style minimization ...
  Unit style: metal
Memory usage per processor = 4.56159 Mbytes
Step Temp E_pair E_mol TotEng Press 
     413           10   -18274.358            0   -18273.056   -8602.5635 
     427           10   -18274.418            0   -18273.117   -8600.3904 
Loop time of 0.196451 on 12 procs for 14 steps with 1008 atoms

100.1% CPU use with 12 MPI tasks x no OpenMP threads

Minimization stats:
  Stopping criterion = linesearch alpha is zero
  Energy initial, next-to-last, final = 
        -18274.3577798      -18274.418229      -18274.418229
  Force two-norm initial, final = 1.23467 0.14334
  Force max component initial, final = 0.112802 0.010721
  Final line search alpha, max atom move = 4.76837e-07 5.11218e-09
  Iterations, force evaluations = 14 69

MPI task timing breakdown:
Section |  min time  |  avg time  |  max time  |%varavg| %total
---------------------------------------------------------------
Pair    | 0.067564   | 0.075331   | 0.07904    |   1.1 | 38.35
Kspace  | 0.10878    | 0.11084    | 0.11364    |   0.4 | 56.42
Neigh   | 0          | 0          | 0          |   0.0 |  0.00
Comm    | 0.006989   | 0.00925    | 0.014262   |   2.1 |  4.71
Output  | 0          | 0          | 0          |   0.0 |  0.00
Modify  | 0          | 0          | 0          |   0.0 |  0.00
Other   |            | 0.001026   |            |       |  0.52

Nlocal:    84 ave 87 max 78 min
Histogram: 1 0 0 0 1 3 0 4 2 1
Nghost:    2607.75 ave 2637 max 2579 min
Histogram: 2 1 0 2 2 0 0 3 0 2
[...]
  estimated absolute RMS force accuracy = 1.94166e-05
  estimated relative force accuracy = 1.34841e-06
  KSpace vectors: actual max1d max3d = 2081 10 4630
                  kxmax kymax kzmax  = 10 10 10
Setting up cg style minimization ...
  Unit style: metal
Memory usage per processor = 4.56159 Mbytes
Step Temp E_pair E_mol TotEng Press 
     925           10    -18274.48            0   -18273.179   -7268.3997 
     935           10   -18274.506            0   -18273.205   -7258.0741 
Loop time of 0.17337 on 12 procs for 10 steps with 1008 atoms

99.9% CPU use with 12 MPI tasks x no OpenMP threads

Minimization stats:
  Stopping criterion = linesearch alpha is zero
  Energy initial, next-to-last, final = 
        -18274.4801516     -18274.5063603     -18274.5063603
  Force two-norm initial, final = 0.824295 0.139304
  Force max component initial, final = 0.0736253 0.011512
  Final line search alpha, max atom move = 4.76837e-07 5.48933e-09
  Iterations, force evaluations = 10 61

MPI task timing breakdown:
Section |  min time  |  avg time  |  max time  |%varavg| %total
---------------------------------------------------------------
Pair    | 0.060444   | 0.066695   | 0.069366   |   0.9 | 38.47
Kspace  | 0.095417   | 0.097457   | 0.099247   |   0.4 | 56.21
Neigh   | 0          | 0          | 0          |   0.0 |  0.00
Comm    | 0.0059087  | 0.0083707  | 0.012837   |   1.8 |  4.83
Output  | 0          | 0          | 0          |   0.0 |  0.00
Modify  | 0          | 0          | 0          |   0.0 |  0.00
Other   |            | 0.0008468  |            |       |  0.49

Nlocal:    84 ave 87 max 78 min
Histogram: 1 0 0 0 0 4 1 3 2 1
Nghost:    2607.5 ave 2641 max 2572 min
Histogram: 1 2 0 1 3 0 1 2 0 2
Neighs:    18640.6 ave 19409 max 17229 min
Histogram: 1 0 0 0 1 3 2 1 3 1

Total # of neighbors = 223687
Ave neighs/atom = 221.912
Neighbor list builds = 0
Dangerous builds = 0
CR_UPDATE- 23.300680	23.300680	23.300680	0.000000	0.000000	0.000000
For k = 6, applying strain of 1.005
Changing box ...
  triclinic box = (0 0 0) to (23.3007 23.3007 23.3007) with tilt (0 0.116503 0)
WARNING: Resetting reneighboring criteria during minimization (../min.cpp:168)
Ewald initialization ...
  G vector (1/distance) = 0.365055
  estimated absolute RMS force accuracy = 1.94166e-05
  estimated relative force accuracy = 1.34841e-06
  KSpace vectors: actual max1d max3d = 2079 10 4630
                  kxmax kymax kzmax  = 10 10 10
Setting up cg style minimization ...
  Unit style: metal
Memory usage per processor = 4.56159 Mbytes
Step Temp E_pair E_mol TotEng Press 
     935           10   -18274.439            0   -18273.138   -7286.9243 
     950           10   -18274.497            0   -18273.196   -7273.8678 
     951           10   -18274.497            0   -18273.196   -7273.8678 
Loop time of 0.38924 on 12 procs for 16 steps with 1008 atoms

100.0% CPU use with 12 MPI tasks x no OpenMP threads

Minimization stats:
  Stopping criterion = linesearch alpha is zero
  Energy initial, next-to-last, final = 
        -18274.4391903      -18274.497235      -18274.497235
  Force two-norm initial, final = 1.23658 0.115857
  Force max component initial, final = 0.110535 0.00771078
  Final line search alpha, max atom move = 4.76837e-07 3.67679e-09
  Iterations, force evaluations = 16 137

MPI task timing breakdown:
Section |  min time  |  avg time  |  max time  |%varavg| %total
---------------------------------------------------------------
Pair    | 0.13436    | 0.14922    | 0.15775    |   1.5 | 38.34
Kspace  | 0.21404    | 0.21961    | 0.22455    |   0.7 | 56.42
Neigh   | 0          | 0          | 0          |   0.0 |  0.00
Comm    | 0.013153   | 0.01861    | 0.028516   |   2.7 |  4.78
Output  | 1.8835e-05 | 2.0166e-05 | 2.2888e-05 |   0.0 |  0.01
Modify  | 0          | 0          | 0          |   0.0 |  0.00
Other   |            | 0.001778   |            |       |  0.46

Nlocal:    84 ave 87 max 78 min
Histogram: 1 0 0 0 0 4 1 3 2 1
Nghost:    2607.5 ave 2641 max 2572 min
Histogram: 1 2 0 1 3 0 1 2 0 2
Neighs:    18642.7 ave 19411 max 17228 min
Histogram: 1 0 0 0 1 3 2 1 3 1

Total # of neighbors = 223712
Ave neighs/atom = 221.937
Neighbor list builds = 0
Dangerous builds = 0
CR_UPDATE- 23.300680	23.300680	23.300680	0.000000	0.000000	0.000000
For k = 0, applying strain of 0.995
Changing box ...
  triclinic box = (0 0 0) to (23.3007 23.3007 23.3007) with tilt (0 0 -0.116503)
WARNING: Resetting reneighboring criteria during minimization (../min.cpp:168)
Ewald initialization ...
  G vector (1/distance) = 0.365055
  estimated absolute RMS force accuracy = 1.94166e-05
  estimated relative force accuracy = 1.34841e-06
  KSpace vectors: actual max1d max3d = 2079 10 4630
                  kxmax kymax kzmax  = 10 10 10
Setting up cg style minimization ...
  Unit style: metal
Memory usage per processor = 4.56159 Mbytes
Step Temp E_pair E_mol TotEng Press 
     951           10   -18274.466            0   -18273.165   -7167.4215 
     962           10   -18274.526            0   -18273.224    -7105.524 
Loop time of 0.184728 on 12 procs for 11 steps with 1008 atoms

99.8% CPU use with 12 MPI tasks x no OpenMP threads

Minimization stats:
  Stopping criterion = linesearch alpha is zero
  Energy initial, next-to-last, final = 
        -18274.4664427     -18274.5259169     -18274.5259169
  Force two-norm initial, final = 1.26836 0.195841
  Force max component initial, final = 0.133135 0.0169774
  Final line search alpha, max atom move = 2.38419e-07 4.04773e-09
  Iterations, force evaluations = 11 65

MPI task timing breakdown:
Section |  min time  |  avg time  |  max time  |%varavg| %total
---------------------------------------------------------------
Pair    | 0.064185   | 0.07089    | 0.074117   |   1.0 | 38.38
Kspace  | 0.10195    | 0.10418    | 0.10614    |   0.4 | 56.39
Neigh   | 0          | 0          | 0          |   0.0 |  0.00
Comm    | 0.0061939  | 0.0087785  | 0.013522   |   1.9 |  4.75
Output  | 0          | 0          | 0          |   0.0 |  0.00
Modify  | 0          | 0          | 0          |   0.0 |  0.00
Other   |            | 0.000882   |            |       |  0.48

Nlocal:    84 ave 87 max 78 min
Histogram: 1 0 0 0 0 4 1 3 2 1
Nghost:    2607.5 ave 2641 max 2572 min
Histogram: 1 2 0 1 3 0 1 2 0 2
Neighs:    18643.2 ave 19411 max 17234 min
Histogram: 1 0 0 0 1 3 2 1 3 1

Total # of neighbors = 223719
Ave neighs/atom = 221.943
Neighbor list builds = 0
Dangerous builds = 0
CR_UPDATE- 23.300680	23.300680	23.300680	0.000000	0.000000	0.000000
For k = 1, applying strain of 0.996667
Changing box ...
  triclinic box = (0 0 0) to (23.3007 23.3007 23.3007) with tilt (0 0 -0.077661)
WARNING: Resetting reneighboring criteria during minimization (../min.cpp:168)
Ewald initialization ...
  G vector (1/distance) = 0.365055
  estimated absolute RMS force accuracy = 1.94166e-05
  estimated relative force accuracy = 1.34841e-06
  KSpace vectors: actual max1d max3d = 2081 10 4630
                  kxmax kymax kzmax  = 10 10 10
Setting up cg style minimization ...
  Unit style: metal
Memory usage per processor = 4.56159 Mbytes
Step Temp E_pair E_mol TotEng Press 
     962           10   -18274.499            0   -18273.197   -7188.7562 
     971           10   -18274.524            0   -18273.222   -7133.8864 
Loop time of 0.173426 on 12 procs for 9 steps with 1008 atoms

99.7% CPU use with 12 MPI tasks x no OpenMP threads

Minimization stats:
  Stopping criterion = linesearch alpha is zero
  Energy initial, next-to-last, final = 
        -18274.4986278     -18274.5240406     -18274.5240406
  Force two-norm initial, final = 0.845599 0.16208
  Force max component initial, final = 0.0887514 0.0206362
  Final line search alpha, max atom move = 2.38419e-07 4.92005e-09
  Iterations, force evaluations = 9 61

MPI task timing breakdown:
Section |  min time  |  avg time  |  max time  |%varavg| %total
---------------------------------------------------------------
Pair    | 0.060498   | 0.066435   | 0.069484   |   0.9 | 38.31
Kspace  | 0.09626    | 0.097895   | 0.099365   |   0.3 | 56.45
Neigh   | 0          | 0          | 0          |   0.0 |  0.00
Comm    | 0.0057659  | 0.0082742  | 0.012749   |   1.9 |  4.77
Output  | 0          | 0          | 0          |   0.0 |  0.00
Modify  | 0          | 0          | 0          |   0.0 |  0.00
Other   |            | 0.0008216  |            |       |  0.47

Nlocal:    84 ave 87 max 78 min
Histogram: 1 0 0 0 0 4 1 3 2 1
Nghost:    2607.5 ave 2641 max 2572 min
Histogram: 1 2 0 1 3 0 1 2 0 2
Neighs:    18641.8 ave 19414 max 17228 min
Histogram: 1 0 0 0 1 3 2 1 3 1

Total # of neighbors = 223701
Ave neighs/atom = 221.926
Neighbor list builds = 0
Dangerous builds = 0
CR_UPDATE- 23.300680	23.300680	23.300680	0.000000	0.000000	0.000000
For k = 2, applying strain of 0.998333
Changing box ...
  triclinic box = (0 0 0) to (23.3007 23.3007 23.3007) with tilt (0 0 -0.038842)
WARNING: Resetting reneighboring criteria during minimization (../min.cpp:168)
Ewald initialization ...
  G vector (1/distance) = 0.365055
  estimated absolute RMS force accuracy = 1.94166e-05
  estimated relative force accuracy = 1.34841e-06
  KSpace vectors: actual max1d max3d = 2082 10 4630
                  kxmax kymax kzmax  = 10 10 10
Setting up cg style minimization ...
  Unit style: metal
Memory usage per processor = 4.56159 Mbytes
Step Temp E_pair E_mol TotEng Press 
     971           10   -18274.504            0   -18273.202    -7205.461 
     978           10    -18274.51            0   -18273.208   -7172.0024 
Loop time of 0.151031 on 12 procs for 7 steps with 1008 atoms

99.9% CPU use with 12 MPI tasks x no OpenMP threads

Minimization stats:
  Stopping criterion = linesearch alpha is zero
  Energy initial, next-to-last, final = 
         -18274.503855     -18274.5101159     -18274.5101159
  Force two-norm initial, final = 0.423063 0.0980406
  Force max component initial, final = 0.0444243 0.0106099
  Final line search alpha, max atom move = 9.53674e-07 1.01184e-08
  Iterations, force evaluations = 7 53

MPI task timing breakdown:
Section |  min time  |  avg time  |  max time  |%varavg| %total
---------------------------------------------------------------
Pair    | 0.052481   | 0.058023   | 0.060414   |   0.8 | 38.42
Kspace  | 0.083785   | 0.085073   | 0.086798   |   0.3 | 56.33
Neigh   | 0          | 0          | 0          |   0.0 |  0.00
Comm    | 0.0050826  | 0.007211   | 0.01103    |   1.7 |  4.77
Output  | 0          | 0          | 0          |   0.0 |  0.00
Modify  | 0          | 0          | 0          |   0.0 |  0.00
Other   |            | 0.0007245  |            |       |  0.48

Nlocal:    84 ave 87 max 78 min
Histogram: 1 0 0 0 0 4 1 3 2 1
Nghost:    2607.5 ave 2641 max 2572 min
Histogram: 1 2 0 1 3 0 1 2 0 2
Neighs:    18640.2 ave 19411 max 17228 min
Histogram: 1 0 0 0 1 3 2 1 3 1

Total # of neighbors = 223683
Ave neighs/atom = 221.908
Neighbor list builds = 0
Dangerous builds = 0
CR_UPDATE- 23.300680	23.300680	23.300680	0.000000	0.000000	0.000000
For k = 3, applying strain of 1
Changing box ...
  triclinic box = (0 0 0) to (23.3007 23.3007 23.3007) with tilt (0 0 0)
WARNING: Resetting reneighboring criteria during minimization (../min.cpp:168)
Ewald initialization ...
  G vector (1/distance) = 0.365055
  estimated absolute RMS force accuracy = 1.94166e-05
  estimated relative force accuracy = 1.34841e-06
  KSpace vectors: actual max1d max3d = 2084 10 4630
                  kxmax kymax kzmax  = 10 10 10
Setting up cg style minimization ...
  Unit style: metal
Memory usage per processor = 4.56159 Mbytes
Step Temp E_pair E_mol TotEng Press 
     978           10   -18274.482            0    -18273.18   -7217.4706 
     983           10   -18274.482            0    -18273.18   -7210.7357 
Loop time of 0.123473 on 12 procs for 5 steps with 1008 atoms

99.6% CPU use with 12 MPI tasks x no OpenMP threads

Minimization stats:
  Stopping criterion = linesearch alpha is zero
  Energy initial, next-to-last, final = 
        -18274.4815832     -18274.4815898     -18274.4815898
  Force two-norm initial, final = 0.00471121 0.00173902
  Force max component initial, final = 0.000337286 0.000195037
  Final line search alpha, max atom move = 0.00390625 7.61862e-07
  Iterations, force evaluations = 5 43

MPI task timing breakdown:
Section |  min time  |  avg time  |  max time  |%varavg| %total
---------------------------------------------------------------
Pair    | 0.042729   | 0.047189   | 0.049484   |   0.8 | 38.22
Kspace  | 0.068366   | 0.069662   | 0.070923   |   0.3 | 56.42
Neigh   | 0          | 0          | 0          |   0.0 |  0.00
Comm    | 0.0042827  | 0.0060324  | 0.0092316  |   1.5 |  4.89
Output  | 0          | 0          | 0          |   0.0 |  0.00
Modify  | 0          | 0          | 0          |   0.0 |  0.00
Other   |            | 0.0005896  |            |       |  0.48

Nlocal:    84 ave 87 max 78 min
Histogram: 1 0 0 0 0 4 1 3 2 1
Nghost:    2607.5 ave 2641 max 2572 min
Histogram: 1 2 0 1 3 0 1 2 0 2
Neighs:    18638.3 ave 19405 max 17219 min
Histogram: 1 0 0 0 1 3 2 1 3 1

Total # of neighbors = 223660
Ave neighs/atom = 221.885
Neighbor list builds = 0
Dangerous builds = 0
CR_UPDATE- 23.300680	23.300680	23.300680	0.000000	0.000000	0.000000
For k = 4, applying strain of 1.00167
Changing box ...
  triclinic box = (0 0 0) to (23.3007 23.3007 23.3007) with tilt (0 0 0.038842)
WARNING: Resetting reneighboring criteria during minimization (../min.cpp:168)
Ewald initialization ...
  G vector (1/distance) = 0.365055
  estimated absolute RMS force accuracy = 1.94166e-05
  estimated relative force accuracy = 1.34841e-06
  KSpace vectors: actual max1d max3d = 2082 10 4630
                  kxmax kymax kzmax  = 10 10 10
Setting up cg style minimization ...
  Unit style: metal
Memory usage per processor = 4.56159 Mbytes
Step Temp E_pair E_mol TotEng Press 
     983           10    -18274.43            0   -18273.129   -7224.3694 
     988           10   -18274.436            0   -18273.134   -7243.9482 
Loop time of 0.148285 on 12 procs for 5 steps with 1008 atoms

99.6% CPU use with 12 MPI tasks x no OpenMP threads

Minimization stats:
  Stopping criterion = linesearch alpha is zero
  Energy initial, next-to-last, final = 
        -18274.4302915     -18274.4357181     -18274.4357181
  Force two-norm initial, final = 0.422683 0.132328
  Force max component initial, final = 0.0441518 0.0212018
  Final line search alpha, max atom move = 4.76837e-07 1.01098e-08
  Iterations, force evaluations = 5 51

MPI task timing breakdown:
Section |  min time  |  avg time  |  max time  |%varavg| %total
---------------------------------------------------------------
Pair    | 0.050699   | 0.056317   | 0.058795   |   0.9 | 37.98
Kspace  | 0.082148   | 0.083692   | 0.085363   |   0.3 | 56.44
Neigh   | 0          | 0          | 0          |   0.0 |  0.00
Comm    | 0.0056143  | 0.0075392  | 0.011503   |   1.6 |  5.08
Output  | 0          | 0          | 0          |   0.0 |  0.00
Modify  | 0          | 0          | 0          |   0.0 |  0.00
Other   |            | 0.0007364  |            |       |  0.50

Nlocal:    84 ave 87 max 78 min
Histogram: 1 0 0 0 0 4 1 3 2 1
Nghost:    2607.5 ave 2641 max 2572 min
Histogram: 1 2 0 1 3 0 1 2 0 2
Neighs:    18639.4 ave 19407 max 17219 min
Histogram: 1 0 0 0 1 3 2 1 3 1

Total # of neighbors = 223673
Ave neighs/atom = 221.898
Neighbor list builds = 0
Dangerous builds = 0
CR_UPDATE- 23.300680	23.300680	23.300680	0.000000	0.000000	0.000000
For k = 5, applying strain of 1.00333
Changing box ...
  triclinic box = (0 0 0) to (23.3007 23.3007 23.3007) with tilt (0 0 0.077661)
WARNING: Resetting reneighboring criteria during minimization (../min.cpp:168)
Ewald initialization ...
  G vector (1/distance) = 0.365055
  estimated absolute RMS force accuracy = 1.94166e-05
  estimated relative force accuracy = 1.34841e-06
  KSpace vectors: actual max1d max3d = 2081 10 4630
                  kxmax kymax kzmax  = 10 10 10
Setting up cg style minimization ...
  Unit style: metal
Memory usage per processor = 4.56159 Mbytes
Step Temp E_pair E_mol TotEng Press 
     988           10   -18274.354            0   -18273.052   -7227.0525 
    1000           10    -18274.38            0   -18273.078   -7268.6328 
Loop time of 0.176351 on 12 procs for 12 steps with 1008 atoms

99.9% CPU use with 12 MPI tasks x no OpenMP threads

Minimization stats:
  Stopping criterion = linesearch alpha is zero
  Energy initial, next-to-last, final = 
        -18274.3537245     -18274.3799288     -18274.3799288
  Force two-norm initial, final = 0.845327 0.118788
  Force max component initial, final = 0.088367 0.00949167
  Final line search alpha, max atom move = 4.76837e-07 4.52598e-09
  Iterations, force evaluations = 12 65

MPI task timing breakdown:
Section |  min time  |  avg time  |  max time  |%varavg| %total
---------------------------------------------------------------
Pair    | 0.060982   | 0.067076   | 0.069813   |   0.9 | 38.04
Kspace  | 0.09708    | 0.099266   | 0.10135    |   0.4 | 56.29
Neigh   | 0          | 0          | 0          |   0.0 |  0.00
Comm    | 0.0062287  | 0.0091365  | 0.01317    |   1.8 |  5.18
Output  | 0          | 0          | 0          |   0.0 |  0.00
Modify  | 0          | 0          | 0          |   0.0 |  0.00
Other   |            | 0.0008716  |            |       |  0.49

Nlocal:    84 ave 87 max 78 min
Histogram: 1 0 0 0 0 4 1 3 2 1
Nghost:    2607.5 ave 2641 max 2572 min
Histogram: 1 2 0 1 3 0 1 2 0 2
Neighs:    18638.8 ave 19402 max 17223 min
Histogram: 1 0 0 0 1 3 2 1 3 1

Total # of neighbors = 223665
Ave neighs/atom = 221.89
Neighbor list builds = 0
Dangerous builds = 0
CR_UPDATE- 23.300680	23.300680	23.300680	0.000000	0.000000	0.000000
For k = 6, applying strain of 1.005
Changing box ...
  triclinic box = (0 0 0) to (23.3007 23.3007 23.3007) with tilt (0 0 0.116503)
WARNING: Resetting reneighboring criteria during minimization (../min.cpp:168)
Ewald initialization ...
  G vector (1/distance) = 0.365055
  estimated absolute RMS force accuracy = 1.94166e-05
  estimated relative force accuracy = 1.34841e-06
  KSpace vectors: actual max1d max3d = 2079 10 4630
                  kxmax kymax kzmax  = 10 10 10
Setting up cg style minimization ...
  Unit style: metal
Memory usage per processor = 4.56159 Mbytes
Step Temp E_pair E_mol TotEng Press 
    1000           10   -18274.248            0   -18272.947   -7224.7301 
    1024           10   -18274.309            0   -18273.007   -7250.4049 
Loop time of 0.316973 on 12 procs for 24 steps with 1008 atoms

99.8% CPU use with 12 MPI tasks x no OpenMP threads

Minimization stats:
  Stopping criterion = linesearch alpha is zero
  Energy initial, next-to-last, final = 
        -18274.2483891     -18274.3089319     -18274.3089319
  Force two-norm initial, final = 1.26827 0.0634811
  Force max component initial, final = 0.132579 0.00661042
  Final line search alpha, max atom move = 1.90735e-06 1.26084e-08
  Iterations, force evaluations = 24 121

MPI task timing breakdown:
Section |  min time  |  avg time  |  max time  |%varavg| %total
---------------------------------------------------------------
Pair    | 0.10921    | 0.11994    | 0.12533    |   1.3 | 37.84
Kspace  | 0.17464    | 0.17834    | 0.1823     |   0.5 | 56.26
Neigh   | 0          | 0          | 0          |   0.0 |  0.00
Comm    | 0.011376   | 0.017083   | 0.023808   |   2.4 |  5.39
Output  | 0          | 0          | 0          |   0.0 |  0.00
Modify  | 0          | 0          | 0          |   0.0 |  0.00
Other   |            | 0.001611   |            |       |  0.51

Nlocal:    84 ave 87 max 78 min
Histogram: 1 0 0 0 0 4 1 3 2 1
Nghost:    2607.5 ave 2641 max 2572 min
Histogram: 1 2 0 1 3 0 1 2 0 2
Neighs:    18637 ave 19397 max 17220 min
Histogram: 1 0 0 0 1 3 2 1 3 1

Total # of neighbors = 223644
Ave neighs/atom = 221.869
Neighbor list builds = 0
Dangerous builds = 0
Total wall time: 0:00:17
Done.
