LAMMPS (7 Dec 2015)
# Tantala heating to find melting temp. and glass transition temp.
# Intervals of 400 K (starting at 0 K) to be merged with the date from the even directory (also has intervals of 400 K starting at 200 K)
# Including rdf compute and initial velocity seed
# I've written a loop that makes melting/cooling simulation codes less tedious (In test directory input file)

# Initialization

units		metal
atom_style	charge
dimension	3
boundary	p p p

# Optional

neighbor	1.0 nsq
neigh_modify	every 1 delay 1 check yes

# Defining atomic system (896 atoms)

read_data	min1.dat
  triclinic box = (0 0 0) to (23.3007 23.3007 23.3007) with tilt (0 0 0)
  2 by 2 by 3 MPI processor grid
  reading atoms ...
  1008 atoms

# Potential

kspace_style	ewald 1.0e-6
#For low-temperature simulations, comment out the following line
#pair_style	hybrid/overlay lj246/cut 10 buck/coul/long 10 morse 10
#For low-temperature simulations, un-comment the following line
pair_style      hybrid/overlay buck/coul/long 10 morse 10

pair_coeff      1 2 buck/coul/long 100067.01 0.1319 6.05
pair_coeff      2 2 buck/coul/long 1388.773 0.3623188 175.0000
pair_coeff      1 1 buck/coul/long 0.00000000 1.0000000 0.000000
pair_coeff	2 3 buck/coul/long 17243.00 0.2265 128.35
pair_coeff      1 3 buck/coul/long 0.00000000 1.0000000 0.000000
pair_coeff      3 3 buck/coul/long 0.00000000 1.0000000 0.000000
pair_coeff 	1 2 morse 	   0.3789 1.6254 2.5445
#Remove these lines if running low-temperature simulation
#pair_coeff      1 2 lj246/cut	   0.01 0.51
#pair_coeff	2 2 lj246/cut 	   0.00035653 1.9000

# MD parameters

#1 fs timestep
timestep 0.001
thermo		50

fix		1 all nvt temp 10 10 0.1
velocity	all create 10 26684

load_tls min1.dump 1 0
  triclinic box = (0 0 0) to (23.3007 23.3007 23.3007) with tilt (0 0 0)
  1008 atoms before read
  1008 atoms in snapshot
  0 atoms purged
  1008 atoms replaced
  0 atoms trimmed
  0 atoms added
  1008 atoms after read
load_tls min2.dump 2 0
  triclinic box = (0 0 0) to (23.3007 23.3007 23.3007) with tilt (0 0 0)
  1008 atoms before read
  1008 atoms in snapshot
  0 atoms purged
  1008 atoms replaced
  0 atoms trimmed
  0 atoms added
  1008 atoms after read
couple_elastic 0.005 linear
  triclinic box = (0.0582517 0 0) to (23.2424 23.3007 23.3007) with tilt (0 0 0)
WARNING: Resetting reneighboring criteria during minimization (../min.cpp:168)
Ewald initialization ...
  G vector (1/distance) = 0.365089
  estimated absolute RMS force accuracy = 1.92191e-05
  estimated relative force accuracy = 1.33469e-06
  KSpace vectors: actual max1d max3d = 2088 10 4630
                  kxmax kymax kzmax  = 10 10 10
Neighbor list info ...
  2 neighbor list requests
  update every 1 steps, delay 0 steps, check yes
  max neighbors/atom: 2000, page size: 100000
  master list distance cutoff = 11
  ghost atom cutoff = 11
Memory usage per processor = 4.56126 Mbytes
Step Temp E_pair E_mol TotEng Press 
       0           10   -18274.329            0   -18273.027    2169.7388 
      18           10   -18274.478            0   -18273.176   -1452.1587 
Loop time of 0.226561 on 12 procs for 18 steps with 1008 atoms

97.5% CPU use with 12 MPI tasks x no OpenMP threads

Minimization stats:
  Stopping criterion = linesearch alpha is zero
  Energy initial, next-to-last, final = 
        -18274.3286179     -18274.4780487     -18274.4780487
  Force two-norm initial, final = 1.81805 0.166856
  Force max component initial, final = 0.160789 0.0159598
  Final line search alpha, max atom move = 2.38419e-07 3.80511e-09
  Iterations, force evaluations = 18 79

MPI task timing breakdown:
Section |  min time  |  avg time  |  max time  |%varavg| %total
---------------------------------------------------------------
Pair    | 0.078918   | 0.086408   | 0.090938   |   1.0 | 38.14
Kspace  | 0.12709    | 0.12877    | 0.12989    |   0.2 | 56.84
Neigh   | 0          | 0          | 0          |   0.0 |  0.00
Comm    | 0.007369   | 0.010182   | 0.016654   |   2.4 |  4.49
Output  | 0          | 0          | 0          |   0.0 |  0.00
Modify  | 0          | 0          | 0          |   0.0 |  0.00
Other   |            | 0.001201   |            |       |  0.53

Nlocal:    84 ave 87 max 77 min
Histogram: 1 0 0 0 1 0 0 5 1 4
Nghost:    2610 ave 2638 max 2580 min
Histogram: 2 0 2 0 0 3 1 1 2 1
Neighs:    18728.3 ave 19517 max 17063 min
Histogram: 1 0 0 1 0 1 2 3 3 1

Total # of neighbors = 224740
Ave neighs/atom = 222.956
Neighbor list builds = 0
Dangerous builds = 0
  triclinic box = (0.0388306 0 0) to (23.2618 23.3007 23.3007) with tilt (0 0 0)
WARNING: Resetting reneighboring criteria during minimization (../min.cpp:168)
Ewald initialization ...
  G vector (1/distance) = 0.365078
  estimated absolute RMS force accuracy = 1.92793e-05
  estimated relative force accuracy = 1.33888e-06
  KSpace vectors: actual max1d max3d = 2084 10 4630
                  kxmax kymax kzmax  = 10 10 10
Memory usage per processor = 4.56126 Mbytes
Step Temp E_pair E_mol TotEng Press 
      18           10   -18274.387            0   -18273.085   -1433.6141 
      35           10    -18274.45            0   -18273.148   -3810.3446 
Loop time of 0.319602 on 12 procs for 17 steps with 1008 atoms

99.1% CPU use with 12 MPI tasks x no OpenMP threads

Minimization stats:
  Stopping criterion = linesearch alpha is zero
  Energy initial, next-to-last, final = 
        -18274.3865012     -18274.4501201     -18274.4501201
  Force two-norm initial, final = 1.20464 0.111643
  Force max component initial, final = 0.106157 0.0101977
  Final line search alpha, max atom move = 9.53674e-07 9.72524e-09
  Iterations, force evaluations = 17 111

MPI task timing breakdown:
Section |  min time  |  avg time  |  max time  |%varavg| %total
---------------------------------------------------------------
Pair    | 0.10896    | 0.12124    | 0.13089    |   1.5 | 37.93
Kspace  | 0.17666    | 0.18239    | 0.18566    |   0.6 | 57.07
Neigh   | 0          | 0          | 0          |   0.0 |  0.00
Comm    | 0.010575   | 0.014448   | 0.023521   |   2.8 |  4.52
Output  | 0          | 0          | 0          |   0.0 |  0.00
Modify  | 0          | 0          | 0          |   0.0 |  0.00
Other   |            | 0.001526   |            |       |  0.48

Nlocal:    84 ave 87 max 77 min
Histogram: 1 0 0 0 1 0 0 5 1 4
Nghost:    2609 ave 2638 max 2578 min
Histogram: 2 0 2 0 1 2 1 1 1 2
Neighs:    18699.3 ave 19490 max 17039 min
Histogram: 1 0 0 1 0 1 2 3 3 1

Total # of neighbors = 224392
Ave neighs/atom = 222.611
Neighbor list builds = 0
Dangerous builds = 0
  triclinic box = (0.0194211 0 0) to (23.2813 23.3007 23.3007) with tilt (0 0 0)
WARNING: Resetting reneighboring criteria during minimization (../min.cpp:168)
Ewald initialization ...
  G vector (1/distance) = 0.365066
  estimated absolute RMS force accuracy = 1.9345e-05
  estimated relative force accuracy = 1.34344e-06
  KSpace vectors: actual max1d max3d = 2084 10 4630
                  kxmax kymax kzmax  = 10 10 10
Memory usage per processor = 4.56126 Mbytes
Step Temp E_pair E_mol TotEng Press 
      35           10   -18274.358            0   -18273.056   -4996.3907 
      42           10   -18274.374            0   -18273.072   -5989.4052 
Loop time of 0.158614 on 12 procs for 7 steps with 1008 atoms

99.3% CPU use with 12 MPI tasks x no OpenMP threads

Minimization stats:
  Stopping criterion = linesearch alpha is zero
  Energy initial, next-to-last, final = 
        -18274.3580399     -18274.3735953     -18274.3735953
  Force two-norm initial, final = 0.598444 0.15698
  Force max component initial, final = 0.0525605 0.0192229
  Final line search alpha, max atom move = 4.76837e-07 9.1662e-09
  Iterations, force evaluations = 7 55

MPI task timing breakdown:
Section |  min time  |  avg time  |  max time  |%varavg| %total
---------------------------------------------------------------
Pair    | 0.054028   | 0.060316   | 0.064418   |   1.0 | 38.03
Kspace  | 0.08825    | 0.090369   | 0.092164   |   0.4 | 56.97
Neigh   | 0          | 0          | 0          |   0.0 |  0.00
Comm    | 0.0052121  | 0.0071732  | 0.011684   |   2.0 |  4.52
Output  | 0          | 0          | 0          |   0.0 |  0.00
Modify  | 0          | 0          | 0          |   0.0 |  0.00
Other   |            | 0.0007554  |            |       |  0.48

Nlocal:    84 ave 87 max 77 min
Histogram: 1 0 0 0 1 0 0 5 1 4
Nghost:    2606.58 ave 2637 max 2574 min
Histogram: 2 0 2 0 2 1 1 1 2 1
Neighs:    18668 ave 19458 max 17017 min
Histogram: 1 0 0 1 0 1 2 3 3 1

Total # of neighbors = 224016
Ave neighs/atom = 222.238
Neighbor list builds = 0
Dangerous builds = 0
  triclinic box = (0 0 0) to (23.3007 23.3007 23.3007) with tilt (0 0 0)
WARNING: Resetting reneighboring criteria during minimization (../min.cpp:168)
Ewald initialization ...
  G vector (1/distance) = 0.365055
  estimated absolute RMS force accuracy = 1.94166e-05
  estimated relative force accuracy = 1.34841e-06
  KSpace vectors: actual max1d max3d = 2084 10 4630
                  kxmax kymax kzmax  = 10 10 10
Memory usage per processor = 4.56126 Mbytes
Step Temp E_pair E_mol TotEng Press 
      42           10   -18274.241            0    -18272.94   -8522.4572 
      45           10   -18274.241            0    -18272.94   -8518.2772 
Loop time of 0.0794187 on 12 procs for 3 steps with 1008 atoms

100.3% CPU use with 12 MPI tasks x no OpenMP threads

Minimization stats:
  Stopping criterion = linesearch alpha is zero
  Energy initial, next-to-last, final = 
        -18274.2414133     -18274.2414434     -18274.2414434
  Force two-norm initial, final = 0.00469481 0.0026961
  Force max component initial, final = 0.000335904 0.000389352
  Final line search alpha, max atom move = 0.000976562 3.80227e-07
  Iterations, force evaluations = 3 27

MPI task timing breakdown:
Section |  min time  |  avg time  |  max time  |%varavg| %total
---------------------------------------------------------------
Pair    | 0.027132   | 0.03009    | 0.032266   |   0.7 | 37.89
Kspace  | 0.044177   | 0.045381   | 0.046079   |   0.2 | 57.14
Neigh   | 0          | 0          | 0          |   0.0 |  0.00
Comm    | 0.0026102  | 0.0035658  | 0.0058384  |   1.4 |  4.49
Output  | 0          | 0          | 0          |   0.0 |  0.00
Modify  | 0          | 0          | 0          |   0.0 |  0.00
Other   |            | 0.0003818  |            |       |  0.48

Nlocal:    84 ave 87 max 77 min
Histogram: 1 0 0 0 1 0 0 5 1 4
Nghost:    2604.83 ave 2635 max 2572 min
Histogram: 2 0 2 0 1 2 1 1 2 1
Neighs:    18638.2 ave 19429 max 16981 min
Histogram: 1 0 0 1 0 1 2 3 3 1

Total # of neighbors = 223658
Ave neighs/atom = 221.883
Neighbor list builds = 0
Dangerous builds = 0
  triclinic box = (-0.0194211 0 0) to (23.3201 23.3007 23.3007) with tilt (0 0 0)
WARNING: Resetting reneighboring criteria during minimization (../min.cpp:168)
Ewald initialization ...
  G vector (1/distance) = 0.365044
  estimated absolute RMS force accuracy = 1.94944e-05
  estimated relative force accuracy = 1.35381e-06
  KSpace vectors: actual max1d max3d = 2084 10 4630
                  kxmax kymax kzmax  = 10 10 10
Memory usage per processor = 4.56126 Mbytes
Step Temp E_pair E_mol TotEng Press 
      45           10   -18274.044            0   -18272.743    -12011.74 
      50           10    -18274.06            0   -18272.758   -11052.418 
      56           10   -18274.062            0    -18272.76   -10905.741 
Loop time of 0.176349 on 12 procs for 11 steps with 1008 atoms

99.9% CPU use with 12 MPI tasks x no OpenMP threads

Minimization stats:
  Stopping criterion = linesearch alpha is zero
  Energy initial, next-to-last, final = 
        -18274.0443094     -18274.0621475     -18274.0621475
  Force two-norm initial, final = 0.594346 0.0971815
  Force max component initial, final = 0.0517307 0.0113679
  Final line search alpha, max atom move = 9.53674e-07 1.08413e-08
  Iterations, force evaluations = 11 61

MPI task timing breakdown:
Section |  min time  |  avg time  |  max time  |%varavg| %total
---------------------------------------------------------------
Pair    | 0.059434   | 0.066561   | 0.071868   |   1.1 | 37.74
Kspace  | 0.0978     | 0.10088    | 0.103      |   0.4 | 57.21
Neigh   | 0          | 0          | 0          |   0.0 |  0.00
Comm    | 0.0057611  | 0.007954   | 0.012984   |   2.1 |  4.51
Output  | 1.812e-05  | 1.9153e-05 | 2.1935e-05 |   0.0 |  0.01
Modify  | 0          | 0          | 0          |   0.0 |  0.00
Other   |            | 0.0009317  |            |       |  0.53

Nlocal:    84 ave 87 max 77 min
Histogram: 1 0 0 0 1 0 0 5 1 4
Nghost:    2600.42 ave 2630 max 2568 min
Histogram: 2 0 1 1 1 2 1 1 2 1
Neighs:    18607.6 ave 19394 max 16955 min
Histogram: 1 0 0 1 0 1 2 3 3 1

Total # of neighbors = 223291
Ave neighs/atom = 221.519
Neighbor list builds = 0
Dangerous builds = 0
  triclinic box = (-0.0388306 0 0) to (23.3395 23.3007 23.3007) with tilt (0 0 0)
WARNING: Resetting reneighboring criteria during minimization (../min.cpp:168)
Ewald initialization ...
  G vector (1/distance) = 0.365032
  estimated absolute RMS force accuracy = 1.95788e-05
  estimated relative force accuracy = 1.35968e-06
  KSpace vectors: actual max1d max3d = 2084 10 4630
                  kxmax kymax kzmax  = 10 10 10
Memory usage per processor = 4.56126 Mbytes
Step Temp E_pair E_mol TotEng Press 
      56           10   -18273.766            0   -18272.465    -15462.17 
      72           10    -18273.83            0   -18272.528   -13158.164 
Loop time of 0.209537 on 12 procs for 16 steps with 1008 atoms

99.6% CPU use with 12 MPI tasks x no OpenMP threads

Minimization stats:
  Stopping criterion = linesearch alpha is zero
  Energy initial, next-to-last, final = 
        -18273.7664714     -18273.8297801     -18273.8297801
  Force two-norm initial, final = 1.1804 0.125811
  Force max component initial, final = 0.102412 0.0111399
  Final line search alpha, max atom move = 4.76837e-07 5.31194e-09
  Iterations, force evaluations = 16 73

MPI task timing breakdown:
Section |  min time  |  avg time  |  max time  |%varavg| %total
---------------------------------------------------------------
Pair    | 0.070969   | 0.079348   | 0.084934   |   1.1 | 37.87
Kspace  | 0.11673    | 0.11967    | 0.12208    |   0.4 | 57.11
Neigh   | 0          | 0          | 0          |   0.0 |  0.00
Comm    | 0.0068707  | 0.0094582  | 0.01548    |   2.3 |  4.51
Output  | 0          | 0          | 0          |   0.0 |  0.00
Modify  | 0          | 0          | 0          |   0.0 |  0.00
Other   |            | 0.001064   |            |       |  0.51

Nlocal:    84 ave 87 max 77 min
Histogram: 1 0 0 0 1 0 0 5 1 4
Nghost:    2596.92 ave 2625 max 2566 min
Histogram: 2 0 1 1 1 2 1 1 2 1
Neighs:    18575.9 ave 19362 max 16924 min
Histogram: 1 0 0 1 0 1 2 3 3 1

Total # of neighbors = 222911
Ave neighs/atom = 221.142
Neighbor list builds = 0
Dangerous builds = 0
  triclinic box = (-0.0582517 0 0) to (23.3589 23.3007 23.3007) with tilt (0 0 0)
WARNING: Resetting reneighboring criteria during minimization (../min.cpp:168)
Ewald initialization ...
  G vector (1/distance) = 0.365021
  estimated absolute RMS force accuracy = 1.96704e-05
  estimated relative force accuracy = 1.36604e-06
  KSpace vectors: actual max1d max3d = 2084 10 4630
                  kxmax kymax kzmax  = 10 10 10
Memory usage per processor = 4.56126 Mbytes
Step Temp E_pair E_mol TotEng Press 
      72           10   -18273.402            0     -18272.1   -18876.826 
      96           10   -18273.551            0   -18272.249   -15391.487 
Loop time of 0.242929 on 12 procs for 24 steps with 1008 atoms

99.6% CPU use with 12 MPI tasks x no OpenMP threads

Minimization stats:
  Stopping criterion = linesearch alpha is zero
  Energy initial, next-to-last, final = 
        -18273.4020481     -18273.5506291     -18273.5506291
  Force two-norm initial, final = 1.76039 0.0797763
  Force max component initial, final = 0.152159 0.0072135
  Final line search alpha, max atom move = 1.90735e-06 1.37587e-08
  Iterations, force evaluations = 24 85

MPI task timing breakdown:
Section |  min time  |  avg time  |  max time  |%varavg| %total
---------------------------------------------------------------
Pair    | 0.081897   | 0.091871   | 0.097647   |   1.2 | 37.82
Kspace  | 0.13603    | 0.1387     | 0.14174    |   0.4 | 57.10
Neigh   | 0          | 0          | 0          |   0.0 |  0.00
Comm    | 0.0079923  | 0.011048   | 0.018035   |   2.5 |  4.55
Output  | 0          | 0          | 0          |   0.0 |  0.00
Modify  | 0          | 0          | 0          |   0.0 |  0.00
Other   |            | 0.001307   |            |       |  0.54

Nlocal:    84 ave 87 max 77 min
Histogram: 1 0 0 0 1 0 0 5 1 4
Nghost:    2596.42 ave 2624 max 2566 min
Histogram: 2 0 1 1 1 2 1 1 2 1
Neighs:    18543.6 ave 19334 max 16900 min
Histogram: 1 0 0 1 0 1 2 3 3 1

Total # of neighbors = 222523
Ave neighs/atom = 220.757
Neighbor list builds = 0
Dangerous builds = 0
  triclinic box = (0 0.0582517 0) to (23.3007 23.2424 23.3007) with tilt (0 0 0)
WARNING: Resetting reneighboring criteria during minimization (../min.cpp:168)
Ewald initialization ...
  G vector (1/distance) = 0.365089
  estimated absolute RMS force accuracy = 1.92191e-05
  estimated relative force accuracy = 1.33469e-06
  KSpace vectors: actual max1d max3d = 2088 10 4630
                  kxmax kymax kzmax  = 10 10 10
Memory usage per processor = 4.56126 Mbytes
Step Temp E_pair E_mol TotEng Press 
      96           10   -18274.349            0   -18273.047    2117.8629 
     100           10   -18274.459            0   -18273.158   -349.31989 
     111           10   -18274.485            0   -18273.184   -1193.0096 
Loop time of 0.211136 on 12 procs for 15 steps with 1008 atoms

100.0% CPU use with 12 MPI tasks x no OpenMP threads

Minimization stats:
  Stopping criterion = linesearch alpha is zero
  Energy initial, next-to-last, final = 
        -18274.3486138     -18274.4853829     -18274.4853829
  Force two-norm initial, final = 1.75127 0.170259
  Force max component initial, final = 0.166322 0.0134194
  Final line search alpha, max atom move = 2.38419e-07 3.19944e-09
  Iterations, force evaluations = 15 73

MPI task timing breakdown:
Section |  min time  |  avg time  |  max time  |%varavg| %total
---------------------------------------------------------------
Pair    | 0.071725   | 0.080206   | 0.086194   |   1.2 | 37.99
Kspace  | 0.11703    | 0.12036    | 0.12287    |   0.4 | 57.01
Neigh   | 0          | 0          | 0          |   0.0 |  0.00
Comm    | 0.0068784  | 0.0095048  | 0.015496   |   2.3 |  4.50
Output  | 1.812e-05  | 1.8517e-05 | 2.0981e-05 |   0.0 |  0.01
Modify  | 0          | 0          | 0          |   0.0 |  0.00
Other   |            | 0.001047   |            |       |  0.50

Nlocal:    84 ave 87 max 77 min
Histogram: 1 0 0 0 1 0 0 5 1 4
Nghost:    2619.08 ave 2652 max 2584 min
Histogram: 2 0 2 0 1 2 1 0 3 1
Neighs:    18730.3 ave 19518 max 17066 min
Histogram: 1 0 0 1 0 1 2 3 3 1

Total # of neighbors = 224764
Ave neighs/atom = 222.98
Neighbor list builds = 0
Dangerous builds = 0
  triclinic box = (0 0.0388306 0) to (23.3007 23.2618 23.3007) with tilt (0 0 0)
WARNING: Resetting reneighboring criteria during minimization (../min.cpp:168)
Ewald initialization ...
  G vector (1/distance) = 0.365078
  estimated absolute RMS force accuracy = 1.92793e-05
  estimated relative force accuracy = 1.33888e-06
  KSpace vectors: actual max1d max3d = 2084 10 4630
                  kxmax kymax kzmax  = 10 10 10
Memory usage per processor = 4.56126 Mbytes
Step Temp E_pair E_mol TotEng Press 
     111           10   -18274.398            0   -18273.097   -1467.7402 
     123           10   -18274.457            0   -18273.156    -3604.941 
Loop time of 0.188257 on 12 procs for 12 steps with 1008 atoms

99.7% CPU use with 12 MPI tasks x no OpenMP threads

Minimization stats:
  Stopping criterion = linesearch alpha is zero
  Energy initial, next-to-last, final = 
        -18274.3984182      -18274.457472      -18274.457472
  Force two-norm initial, final = 1.16045 0.15784
  Force max component initial, final = 0.110093 0.0154517
  Final line search alpha, max atom move = 4.76837e-07 7.36796e-09
  Iterations, force evaluations = 12 65

MPI task timing breakdown:
Section |  min time  |  avg time  |  max time  |%varavg| %total
---------------------------------------------------------------
Pair    | 0.063833   | 0.0712     | 0.077087   |   1.1 | 37.82
Kspace  | 0.10413    | 0.10769    | 0.10977    |   0.4 | 57.21
Neigh   | 0          | 0          | 0          |   0.0 |  0.00
Comm    | 0.00614    | 0.0084275  | 0.013764   |   2.2 |  4.48
Output  | 0          | 0          | 0          |   0.0 |  0.00
Modify  | 0          | 0          | 0          |   0.0 |  0.00
Other   |            | 0.0009359  |            |       |  0.50

Nlocal:    84 ave 87 max 77 min
Histogram: 1 0 0 0 1 0 0 5 1 4
Nghost:    2613.58 ave 2644 max 2579 min
Histogram: 2 0 2 0 0 2 2 0 3 1
Neighs:    18701.2 ave 19497 max 17037 min
Histogram: 1 0 0 1 0 1 2 3 3 1

Total # of neighbors = 224415
Ave neighs/atom = 222.634
Neighbor list builds = 0
Dangerous builds = 0
  triclinic box = (0 0.0194211 0) to (23.3007 23.2813 23.3007) with tilt (0 0 0)
WARNING: Resetting reneighboring criteria during minimization (../min.cpp:168)
Ewald initialization ...
  G vector (1/distance) = 0.365066
  estimated absolute RMS force accuracy = 1.9345e-05
  estimated relative force accuracy = 1.34344e-06
  KSpace vectors: actual max1d max3d = 2084 10 4630
                  kxmax kymax kzmax  = 10 10 10
Memory usage per processor = 4.56126 Mbytes
Step Temp E_pair E_mol TotEng Press 
     123           10   -18274.362            0    -18273.06   -5012.9238 
     133           10   -18274.376            0   -18273.075   -6049.0992 
Loop time of 0.17099 on 12 procs for 10 steps with 1008 atoms

99.9% CPU use with 12 MPI tasks x no OpenMP threads

Minimization stats:
  Stopping criterion = linesearch alpha is zero
  Energy initial, next-to-last, final = 
        -18274.3619931     -18274.3762896     -18274.3762896
  Force two-norm initial, final = 0.576528 0.09852
  Force max component initial, final = 0.0547512 0.0127071
  Final line search alpha, max atom move = 9.53674e-07 1.21185e-08
  Iterations, force evaluations = 10 59

MPI task timing breakdown:
Section |  min time  |  avg time  |  max time  |%varavg| %total
---------------------------------------------------------------
Pair    | 0.058244   | 0.064762   | 0.069957   |   1.1 | 37.87
Kspace  | 0.094636   | 0.097729   | 0.099399   |   0.4 | 57.15
Neigh   | 0          | 0          | 0          |   0.0 |  0.00
Comm    | 0.0055909  | 0.0076658  | 0.012541   |   2.1 |  4.48
Output  | 0          | 0          | 0          |   0.0 |  0.00
Modify  | 0          | 0          | 0          |   0.0 |  0.00
Other   |            | 0.0008329  |            |       |  0.49

Nlocal:    84 ave 87 max 77 min
Histogram: 1 0 0 0 1 0 0 5 1 4
Nghost:    2610.58 ave 2644 max 2575 min
Histogram: 1 1 1 1 1 3 0 1 2 1
Neighs:    18668.1 ave 19462 max 17010 min
Histogram: 1 0 0 1 0 1 2 3 3 1

Total # of neighbors = 224017
Ave neighs/atom = 222.239
Neighbor list builds = 0
Dangerous builds = 0
  triclinic box = (0 0 0) to (23.3007 23.3007 23.3007) with tilt (0 0 0)
WARNING: Resetting reneighboring criteria during minimization (../min.cpp:168)
Ewald initialization ...
  G vector (1/distance) = 0.365055
  estimated absolute RMS force accuracy = 1.94166e-05
  estimated relative force accuracy = 1.34841e-06
  KSpace vectors: actual max1d max3d = 2084 10 4630
                  kxmax kymax kzmax  = 10 10 10
Memory usage per processor = 4.56126 Mbytes
Step Temp E_pair E_mol TotEng Press 
     133           10   -18274.241            0    -18272.94   -8522.4572 
     136           10   -18274.241            0    -18272.94   -8518.2772 
Loop time of 0.0793764 on 12 procs for 3 steps with 1008 atoms

100.1% CPU use with 12 MPI tasks x no OpenMP threads

Minimization stats:
  Stopping criterion = linesearch alpha is zero
  Energy initial, next-to-last, final = 
        -18274.2414133     -18274.2414434     -18274.2414434
  Force two-norm initial, final = 0.00469481 0.0026961
  Force max component initial, final = 0.000335904 0.000389352
  Final line search alpha, max atom move = 0.000976562 3.80227e-07
  Iterations, force evaluations = 3 27

MPI task timing breakdown:
Section |  min time  |  avg time  |  max time  |%varavg| %total
---------------------------------------------------------------
Pair    | 0.026969   | 0.030104   | 0.032281   |   0.7 | 37.93
Kspace  | 0.044158   | 0.045325   | 0.046219   |   0.2 | 57.10
Neigh   | 0          | 0          | 0          |   0.0 |  0.00
Comm    | 0.0025733  | 0.0035658  | 0.005821   |   1.4 |  4.49
Output  | 0          | 0          | 0          |   0.0 |  0.00
Modify  | 0          | 0          | 0          |   0.0 |  0.00
Other   |            | 0.0003813  |            |       |  0.48

Nlocal:    84 ave 87 max 77 min
Histogram: 1 0 0 0 1 0 0 5 1 4
Nghost:    2604.83 ave 2635 max 2572 min
Histogram: 2 0 2 0 1 2 1 1 2 1
Neighs:    18638.2 ave 19429 max 16981 min
Histogram: 1 0 0 1 0 1 2 3 3 1

Total # of neighbors = 223658
Ave neighs/atom = 221.883
Neighbor list builds = 0
Dangerous builds = 0
  triclinic box = (0 -0.0194211 0) to (23.3007 23.3201 23.3007) with tilt (0 0 0)
WARNING: Resetting reneighboring criteria during minimization (../min.cpp:168)
Ewald initialization ...
  G vector (1/distance) = 0.365044
  estimated absolute RMS force accuracy = 1.94944e-05
  estimated relative force accuracy = 1.35381e-06
  KSpace vectors: actual max1d max3d = 2084 10 4630
                  kxmax kymax kzmax  = 10 10 10
Memory usage per processor = 4.56126 Mbytes
Step Temp E_pair E_mol TotEng Press 
     136           10   -18274.037            0   -18272.736   -11994.649 
     143           10   -18274.051            0   -18272.749   -11024.104 
Loop time of 0.158725 on 12 procs for 7 steps with 1008 atoms

99.9% CPU use with 12 MPI tasks x no OpenMP threads

Minimization stats:
  Stopping criterion = linesearch alpha is zero
  Energy initial, next-to-last, final = 
         -18274.037282     -18274.0508634     -18274.0508634
  Force two-norm initial, final = 0.573113 0.149748
  Force max component initial, final = 0.0538802 0.0182536
  Final line search alpha, max atom move = 4.76837e-07 8.70401e-09
  Iterations, force evaluations = 7 55

MPI task timing breakdown:
Section |  min time  |  avg time  |  max time  |%varavg| %total
---------------------------------------------------------------
Pair    | 0.05429    | 0.060094   | 0.064414   |   0.9 | 37.86
Kspace  | 0.088376   | 0.09071    | 0.09198    |   0.3 | 57.15
Neigh   | 0          | 0          | 0          |   0.0 |  0.00
Comm    | 0.0052128  | 0.0071621  | 0.011726   |   2.0 |  4.51
Output  | 0          | 0          | 0          |   0.0 |  0.00
Modify  | 0          | 0          | 0          |   0.0 |  0.00
Other   |            | 0.0007595  |            |       |  0.48

Nlocal:    84 ave 87 max 77 min
Histogram: 1 0 0 0 1 0 0 5 1 4
Nghost:    2598.83 ave 2632 max 2565 min
Histogram: 2 1 1 0 2 1 1 1 2 1
Neighs:    18603.9 ave 19394 max 16950 min
Histogram: 1 0 0 1 0 1 2 3 3 1

Total # of neighbors = 223247
Ave neighs/atom = 221.475
Neighbor list builds = 0
Dangerous builds = 0
  triclinic box = (0 -0.0388306 0) to (23.3007 23.3395 23.3007) with tilt (0 0 0)
WARNING: Resetting reneighboring criteria during minimization (../min.cpp:168)
Ewald initialization ...
  G vector (1/distance) = 0.365032
  estimated absolute RMS force accuracy = 1.95788e-05
  estimated relative force accuracy = 1.35968e-06
  KSpace vectors: actual max1d max3d = 2084 10 4630
                  kxmax kymax kzmax  = 10 10 10
Memory usage per processor = 4.56126 Mbytes
Step Temp E_pair E_mol TotEng Press 
     143           10    -18273.75            0   -18272.448   -15427.509 
     150           10   -18273.808            0   -18272.507   -13431.973 
     154           10   -18273.812            0   -18272.511   -13335.751 
Loop time of 0.187874 on 12 procs for 11 steps with 1008 atoms

99.9% CPU use with 12 MPI tasks x no OpenMP threads

Minimization stats:
  Stopping criterion = linesearch alpha is zero
  Energy initial, next-to-last, final = 
        -18273.7497279     -18273.8124727     -18273.8124727
  Force two-norm initial, final = 1.13825 0.177419
  Force max component initial, final = 0.10704 0.0225596
  Final line search alpha, max atom move = 2.38419e-07 5.37862e-09
  Iterations, force evaluations = 11 65

MPI task timing breakdown:
Section |  min time  |  avg time  |  max time  |%varavg| %total
---------------------------------------------------------------
Pair    | 0.062589   | 0.070761   | 0.076777   |   1.2 | 37.66
Kspace  | 0.10411    | 0.10776    | 0.11064    |   0.5 | 57.36
Neigh   | 0          | 0          | 0          |   0.0 |  0.00
Comm    | 0.0060818  | 0.0084107  | 0.013734   |   2.2 |  4.48
Output  | 1.7881e-05 | 1.8378e-05 | 2.0981e-05 |   0.0 |  0.01
Modify  | 0          | 0          | 0          |   0.0 |  0.00
Other   |            | 0.0009222  |            |       |  0.49

Nlocal:    84 ave 87 max 77 min
Histogram: 1 0 0 0 1 0 0 5 1 4
Nghost:    2596.83 ave 2629 max 2565 min
Histogram: 2 0 2 0 2 1 1 1 2 1
Neighs:    18575.8 ave 19370 max 16925 min
Histogram: 1 0 0 1 0 1 2 3 3 1

Total # of neighbors = 222910
Ave neighs/atom = 221.141
Neighbor list builds = 0
Dangerous builds = 0
  triclinic box = (0 -0.0582517 0) to (23.3007 23.3589 23.3007) with tilt (0 0 0)
WARNING: Resetting reneighboring criteria during minimization (../min.cpp:168)
Ewald initialization ...
  G vector (1/distance) = 0.365021
  estimated absolute RMS force accuracy = 1.96704e-05
  estimated relative force accuracy = 1.36604e-06
  KSpace vectors: actual max1d max3d = 2084 10 4630
                  kxmax kymax kzmax  = 10 10 10
Memory usage per processor = 4.56126 Mbytes
Step Temp E_pair E_mol TotEng Press 
     154           10   -18273.386            0   -18272.085   -18827.329 
     173           10   -18273.522            0    -18272.22    -15514.46 
Loop time of 0.22748 on 12 procs for 19 steps with 1008 atoms

100.0% CPU use with 12 MPI tasks x no OpenMP threads

Minimization stats:
  Stopping criterion = linesearch alpha is zero
  Energy initial, next-to-last, final = 
        -18273.3864807     -18273.5219607     -18273.5219607
  Force two-norm initial, final = 1.69765 0.131845
  Force max component initial, final = 0.159415 0.0114581
  Final line search alpha, max atom move = 4.76837e-07 5.46364e-09
  Iterations, force evaluations = 19 79

MPI task timing breakdown:
Section |  min time  |  avg time  |  max time  |%varavg| %total
---------------------------------------------------------------
Pair    | 0.076325   | 0.086018   | 0.092313   |   1.2 | 37.81
Kspace  | 0.12664    | 0.13007    | 0.13329    |   0.4 | 57.18
Neigh   | 0          | 0          | 0          |   0.0 |  0.00
Comm    | 0.0073917  | 0.010247   | 0.016732   |   2.4 |  4.50
Output  | 0          | 0          | 0          |   0.0 |  0.00
Modify  | 0          | 0          | 0          |   0.0 |  0.00
Other   |            | 0.00115    |            |       |  0.51

Nlocal:    84 ave 87 max 77 min
Histogram: 1 0 0 0 1 0 0 5 1 4
Nghost:    2592.08 ave 2623 max 2560 min
Histogram: 2 1 1 0 2 1 1 1 1 2
Neighs:    18543.6 ave 19340 max 16895 min
Histogram: 1 0 0 1 0 1 2 3 3 1

Total # of neighbors = 222523
Ave neighs/atom = 220.757
Neighbor list builds = 0
Dangerous builds = 0
  triclinic box = (0 0 0.0582517) to (23.3007 23.3007 23.2424) with tilt (0 0 0)
WARNING: Resetting reneighboring criteria during minimization (../min.cpp:168)
Ewald initialization ...
  G vector (1/distance) = 0.365089
  estimated absolute RMS force accuracy = 1.92191e-05
  estimated relative force accuracy = 1.33469e-06
  KSpace vectors: actual max1d max3d = 2088 10 4630
                  kxmax kymax kzmax  = 10 10 10
Memory usage per processor = 4.56126 Mbytes
Step Temp E_pair E_mol TotEng Press 
     173           10   -18274.208            0   -18272.906    1976.1471 
     200           10   -18274.358            0   -18273.056   -1717.1762 
     201           10   -18274.358            0   -18273.056   -1717.1762 
Loop time of 0.351949 on 12 procs for 28 steps with 1008 atoms

99.9% CPU use with 12 MPI tasks x no OpenMP threads

Minimization stats:
  Stopping criterion = linesearch alpha is zero
  Energy initial, next-to-last, final = 
        -18274.2080946     -18274.3580749     -18274.3580749
  Force two-norm initial, final = 1.88725 0.0715269
  Force max component initial, final = 0.165133 0.00564374
  Final line search alpha, max atom move = 1.90735e-06 1.07646e-08
  Iterations, force evaluations = 28 123

MPI task timing breakdown:
Section |  min time  |  avg time  |  max time  |%varavg| %total
---------------------------------------------------------------
Pair    | 0.11974    | 0.13396    | 0.14267    |   1.4 | 38.06
Kspace  | 0.19594    | 0.20033    | 0.20457    |   0.5 | 56.92
Neigh   | 0          | 0          | 0          |   0.0 |  0.00
Comm    | 0.011594   | 0.015872   | 0.025895   |   3.0 |  4.51
Output  | 1.812e-05  | 1.9014e-05 | 2.1219e-05 |   0.0 |  0.01
Modify  | 0          | 0          | 0          |   0.0 |  0.00
Other   |            | 0.001772   |            |       |  0.50

Nlocal:    84 ave 87 max 77 min
Histogram: 1 0 0 0 1 0 0 5 1 4
Nghost:    2615.58 ave 2647 max 2585 min
Histogram: 2 0 1 3 0 1 1 1 2 1
Neighs:    18731.9 ave 19528 max 17084 min
Histogram: 1 0 0 1 0 1 2 3 3 1

Total # of neighbors = 224783
Ave neighs/atom = 222.999
Neighbor list builds = 0
Dangerous builds = 0
  triclinic box = (0 0 0.0388306) to (23.3007 23.3007 23.2618) with tilt (0 0 0)
WARNING: Resetting reneighboring criteria during minimization (../min.cpp:168)
Ewald initialization ...
  G vector (1/distance) = 0.365078
  estimated absolute RMS force accuracy = 1.92793e-05
  estimated relative force accuracy = 1.33888e-06
  KSpace vectors: actual max1d max3d = 2084 10 4630
                  kxmax kymax kzmax  = 10 10 10
Memory usage per processor = 4.56126 Mbytes
Step Temp E_pair E_mol TotEng Press 
     201           10   -18274.304            0   -18273.002   -1561.5573 
     221           10    -18274.37            0   -18273.068   -3956.6899 
Loop time of 0.355534 on 12 procs for 20 steps with 1008 atoms

100.0% CPU use with 12 MPI tasks x no OpenMP threads

Minimization stats:
  Stopping criterion = linesearch alpha is zero
  Energy initial, next-to-last, final = 
         -18274.304116     -18274.3699805     -18274.3699805
  Force two-norm initial, final = 1.25044 0.0840492
  Force max component initial, final = 0.109058 0.00740959
  Final line search alpha, max atom move = 9.53674e-07 7.06634e-09
  Iterations, force evaluations = 20 125

MPI task timing breakdown:
Section |  min time  |  avg time  |  max time  |%varavg| %total
---------------------------------------------------------------
Pair    | 0.12142    | 0.13567    | 0.1434     |   1.4 | 38.16
Kspace  | 0.19859    | 0.20187    | 0.20603    |   0.5 | 56.78
Neigh   | 0          | 0          | 0          |   0.0 |  0.00
Comm    | 0.011878   | 0.016265   | 0.026421   |   3.0 |  4.57
Output  | 0          | 0          | 0          |   0.0 |  0.00
Modify  | 0          | 0          | 0          |   0.0 |  0.00
Other   |            | 0.001721   |            |       |  0.48

Nlocal:    84 ave 87 max 77 min
Histogram: 1 0 0 0 1 0 0 5 1 4
Nghost:    2610.33 ave 2637 max 2579 min
Histogram: 2 0 1 1 1 2 0 2 1 2
Neighs:    18698.2 ave 19492 max 17045 min
Histogram: 1 0 0 1 0 1 2 3 3 1

Total # of neighbors = 224379
Ave neighs/atom = 222.598
Neighbor list builds = 0
Dangerous builds = 0
  triclinic box = (0 0 0.0194211) to (23.3007 23.3007 23.2813) with tilt (0 0 0)
WARNING: Resetting reneighboring criteria during minimization (../min.cpp:168)
Ewald initialization ...
  G vector (1/distance) = 0.365066
  estimated absolute RMS force accuracy = 1.9345e-05
  estimated relative force accuracy = 1.34344e-06
  KSpace vectors: actual max1d max3d = 2084 10 4630
                  kxmax kymax kzmax  = 10 10 10
Memory usage per processor = 4.56126 Mbytes
Step Temp E_pair E_mol TotEng Press 
     221           10   -18274.313            0   -18273.011   -5059.0935 
     231           10   -18274.328            0   -18273.026   -6154.1125 
Loop time of 0.17052 on 12 procs for 10 steps with 1008 atoms

100.1% CPU use with 12 MPI tasks x no OpenMP threads

Minimization stats:
  Stopping criterion = linesearch alpha is zero
  Energy initial, next-to-last, final = 
        -18274.3129547     -18274.3276442     -18274.3276442
  Force two-norm initial, final = 0.62121 0.0995809
  Force max component initial, final = 0.054067 0.00760757
  Final line search alpha, max atom move = 9.53674e-07 7.25514e-09
  Iterations, force evaluations = 10 59

MPI task timing breakdown:
Section |  min time  |  avg time  |  max time  |%varavg| %total
---------------------------------------------------------------
Pair    | 0.057913   | 0.064616   | 0.069418   |   1.1 | 37.89
Kspace  | 0.094638   | 0.097314   | 0.099187   |   0.4 | 57.07
Neigh   | 0          | 0          | 0          |   0.0 |  0.00
Comm    | 0.0056591  | 0.0077576  | 0.01261    |   2.1 |  4.55
Output  | 0          | 0          | 0          |   0.0 |  0.00
Modify  | 0          | 0          | 0          |   0.0 |  0.00
Other   |            | 0.0008329  |            |       |  0.49

Nlocal:    84 ave 87 max 77 min
Histogram: 1 0 0 0 1 0 0 5 1 4
Nghost:    2607.58 ave 2637 max 2573 min
Histogram: 2 0 1 1 0 3 0 3 0 2
Neighs:    18668 ave 19459 max 17015 min
Histogram: 1 0 0 1 0 1 2 3 3 1

Total # of neighbors = 224016
Ave neighs/atom = 222.238
Neighbor list builds = 0
Dangerous builds = 0
  triclinic box = (0 0 0) to (23.3007 23.3007 23.3007) with tilt (0 0 0)
WARNING: Resetting reneighboring criteria during minimization (../min.cpp:168)
Ewald initialization ...
  G vector (1/distance) = 0.365055
  estimated absolute RMS force accuracy = 1.94166e-05
  estimated relative force accuracy = 1.34841e-06
  KSpace vectors: actual max1d max3d = 2084 10 4630
                  kxmax kymax kzmax  = 10 10 10
Memory usage per processor = 4.56126 Mbytes
Step Temp E_pair E_mol TotEng Press 
     231           10   -18274.241            0    -18272.94   -8522.4572 
     234           10   -18274.241            0    -18272.94   -8518.2772 
Loop time of 0.0793684 on 12 procs for 3 steps with 1008 atoms

100.2% CPU use with 12 MPI tasks x no OpenMP threads

Minimization stats:
  Stopping criterion = linesearch alpha is zero
  Energy initial, next-to-last, final = 
        -18274.2414133     -18274.2414434     -18274.2414434
  Force two-norm initial, final = 0.00469481 0.0026961
  Force max component initial, final = 0.000335904 0.000389352
  Final line search alpha, max atom move = 0.000976562 3.80227e-07
  Iterations, force evaluations = 3 27

MPI task timing breakdown:
Section |  min time  |  avg time  |  max time  |%varavg| %total
---------------------------------------------------------------
Pair    | 0.027128   | 0.030191   | 0.032151   |   0.7 | 38.04
Kspace  | 0.044268   | 0.045233   | 0.046043   |   0.2 | 56.99
Neigh   | 0          | 0          | 0          |   0.0 |  0.00
Comm    | 0.0025749  | 0.0035576  | 0.0058191  |   1.4 |  4.48
Output  | 0          | 0          | 0          |   0.0 |  0.00
Modify  | 0          | 0          | 0          |   0.0 |  0.00
Other   |            | 0.0003874  |            |       |  0.49

Nlocal:    84 ave 87 max 77 min
Histogram: 1 0 0 0 1 0 0 5 1 4
Nghost:    2604.83 ave 2635 max 2572 min
Histogram: 2 0 2 0 1 2 1 1 2 1
Neighs:    18638.2 ave 19429 max 16981 min
Histogram: 1 0 0 1 0 1 2 3 3 1

Total # of neighbors = 223658
Ave neighs/atom = 221.883
Neighbor list builds = 0
Dangerous builds = 0
  triclinic box = (0 0 -0.0194211) to (23.3007 23.3007 23.3201) with tilt (0 0 0)
WARNING: Resetting reneighboring criteria during minimization (../min.cpp:168)
Ewald initialization ...
  G vector (1/distance) = 0.365044
  estimated absolute RMS force accuracy = 1.94944e-05
  estimated relative force accuracy = 1.35381e-06
  KSpace vectors: actual max1d max3d = 2084 10 4630
                  kxmax kymax kzmax  = 10 10 10
Memory usage per processor = 4.56126 Mbytes
Step Temp E_pair E_mol TotEng Press 
     234           10   -18274.089            0   -18272.787   -11949.508 
     243           10   -18274.104            0   -18272.802   -10866.937 
Loop time of 0.163961 on 12 procs for 9 steps with 1008 atoms

99.8% CPU use with 12 MPI tasks x no OpenMP threads

Minimization stats:
  Stopping criterion = linesearch alpha is zero
  Energy initial, next-to-last, final = 
        -18274.0885756     -18274.1037363     -18274.1037363
  Force two-norm initial, final = 0.617222 0.111915
  Force max component initial, final = 0.052883 0.00844586
  Final line search alpha, max atom move = 9.53674e-07 8.0546e-09
  Iterations, force evaluations = 9 57

MPI task timing breakdown:
Section |  min time  |  avg time  |  max time  |%varavg| %total
---------------------------------------------------------------
Pair    | 0.055794   | 0.062443   | 0.066401   |   1.0 | 38.08
Kspace  | 0.091388   | 0.093302   | 0.095305   |   0.3 | 56.91
Neigh   | 0          | 0          | 0          |   0.0 |  0.00
Comm    | 0.0053823  | 0.0073999  | 0.012079   |   2.0 |  4.51
Output  | 0          | 0          | 0          |   0.0 |  0.00
Modify  | 0          | 0          | 0          |   0.0 |  0.00
Other   |            | 0.0008152  |            |       |  0.50

Nlocal:    84 ave 87 max 77 min
Histogram: 1 0 0 0 1 0 0 5 1 4
Nghost:    2602.58 ave 2634 max 2570 min
Histogram: 2 0 2 0 1 2 1 2 1 1
Neighs:    18607.3 ave 19399 max 16956 min
Histogram: 1 0 0 1 0 1 2 3 3 1

Total # of neighbors = 223288
Ave neighs/atom = 221.516
Neighbor list builds = 0
Dangerous builds = 0
  triclinic box = (0 0 -0.0388306) to (23.3007 23.3007 23.3395) with tilt (0 0 0)
WARNING: Resetting reneighboring criteria during minimization (../min.cpp:168)
Ewald initialization ...
  G vector (1/distance) = 0.365032
  estimated absolute RMS force accuracy = 1.95788e-05
  estimated relative force accuracy = 1.35968e-06
  KSpace vectors: actual max1d max3d = 2084 10 4630
                  kxmax kymax kzmax  = 10 10 10
Memory usage per processor = 4.56126 Mbytes
Step Temp E_pair E_mol TotEng Press 
     243           10   -18273.853            0   -18272.551   -15337.851 
     250           10   -18273.909            0   -18272.608   -13256.071 
     261           10   -18273.917            0   -18272.616   -12994.236 
Loop time of 0.214184 on 12 procs for 18 steps with 1008 atoms

99.9% CPU use with 12 MPI tasks x no OpenMP threads

Minimization stats:
  Stopping criterion = linesearch alpha is zero
  Energy initial, next-to-last, final = 
        -18273.8527149      -18273.917272      -18273.917272
  Force two-norm initial, final = 1.22588 0.101585
  Force max component initial, final = 0.104805 0.00901701
  Final line search alpha, max atom move = 9.53674e-07 8.59929e-09
  Iterations, force evaluations = 18 75

MPI task timing breakdown:
Section |  min time  |  avg time  |  max time  |%varavg| %total
---------------------------------------------------------------
Pair    | 0.072952   | 0.081332   | 0.086049   |   1.1 | 37.97
Kspace  | 0.1198     | 0.12184    | 0.12407    |   0.3 | 56.88
Neigh   | 0          | 0          | 0          |   0.0 |  0.00
Comm    | 0.0072148  | 0.0098789  | 0.016038   |   2.3 |  4.61
Output  | 1.7881e-05 | 1.8855e-05 | 2.0981e-05 |   0.0 |  0.01
Modify  | 0          | 0          | 0          |   0.0 |  0.00
Other   |            | 0.00112    |            |       |  0.52

Nlocal:    84 ave 87 max 77 min
Histogram: 1 0 0 0 1 0 0 5 1 4
Nghost:    2599.58 ave 2631 max 2564 min
Histogram: 2 0 1 1 1 2 1 2 0 2
Neighs:    18576.5 ave 19362 max 16933 min
Histogram: 1 0 0 1 0 1 2 3 3 1

Total # of neighbors = 222918
Ave neighs/atom = 221.149
Neighbor list builds = 0
Dangerous builds = 0
  triclinic box = (0 0 -0.0582517) to (23.3007 23.3007 23.3589) with tilt (0 0 0)
WARNING: Resetting reneighboring criteria during minimization (../min.cpp:168)
Ewald initialization ...
  G vector (1/distance) = 0.365021
  estimated absolute RMS force accuracy = 1.96704e-05
  estimated relative force accuracy = 1.36604e-06
  KSpace vectors: actual max1d max3d = 2084 10 4630
                  kxmax kymax kzmax  = 10 10 10
Memory usage per processor = 4.56126 Mbytes
Step Temp E_pair E_mol TotEng Press 
     261           10   -18273.542            0    -18272.24   -18693.849 
     279           10   -18273.683            0   -18272.382   -15200.933 
Loop time of 0.219875 on 12 procs for 18 steps with 1008 atoms

100.0% CPU use with 12 MPI tasks x no OpenMP threads

Minimization stats:
  Stopping criterion = linesearch alpha is zero
  Energy initial, next-to-last, final = 
         -18273.541883     -18273.6832394     -18273.6832394
  Force two-norm initial, final = 1.82829 0.151785
  Force max component initial, final = 0.155604 0.0131643
  Final line search alpha, max atom move = 4.76837e-07 6.27724e-09
  Iterations, force evaluations = 18 77

MPI task timing breakdown:
Section |  min time  |  avg time  |  max time  |%varavg| %total
---------------------------------------------------------------
Pair    | 0.074762   | 0.083311   | 0.088267   |   1.1 | 37.89
Kspace  | 0.12313    | 0.12531    | 0.12755    |   0.3 | 56.99
Neigh   | 0          | 0          | 0          |   0.0 |  0.00
Comm    | 0.0073872  | 0.010119   | 0.016468   |   2.4 |  4.60
Output  | 0          | 0          | 0          |   0.0 |  0.00
Modify  | 0          | 0          | 0          |   0.0 |  0.00
Other   |            | 0.001134   |            |       |  0.52

Nlocal:    84 ave 87 max 77 min
Histogram: 1 0 0 0 1 0 0 5 1 4
Nghost:    2594.33 ave 2627 max 2561 min
Histogram: 2 0 2 0 1 2 1 1 2 1
Neighs:    18544.8 ave 19327 max 16906 min
Histogram: 1 0 0 1 0 1 2 3 3 1

Total # of neighbors = 222538
Ave neighs/atom = 220.772
Neighbor list builds = 0
Dangerous builds = 0
  triclinic box = (0 0 0) to (23.3007 23.3007 23.3007) with tilt (-0.116503 0 0)
WARNING: Resetting reneighboring criteria during minimization (../min.cpp:168)
Ewald initialization ...
  G vector (1/distance) = 0.365055
  estimated absolute RMS force accuracy = 1.94166e-05
  estimated relative force accuracy = 1.34841e-06
  KSpace vectors: actual max1d max3d = 2079 10 4630
                  kxmax kymax kzmax  = 10 10 10
Memory usage per processor = 4.56126 Mbytes
Step Temp E_pair E_mol TotEng Press 
     279           10   -18274.013            0   -18272.712   -8482.6337 
     289           10   -18274.065            0   -18272.763   -8440.8538 
Loop time of 0.180681 on 12 procs for 10 steps with 1008 atoms

99.8% CPU use with 12 MPI tasks x no OpenMP threads

Minimization stats:
  Stopping criterion = linesearch alpha is zero
  Energy initial, next-to-last, final = 
        -18274.0131982     -18274.0649721     -18274.0649721
  Force two-norm initial, final = 1.2064 0.182575
  Force max component initial, final = 0.127464 0.0189749
  Final line search alpha, max atom move = 2.38419e-07 4.52397e-09
  Iterations, force evaluations = 10 63

MPI task timing breakdown:
Section |  min time  |  avg time  |  max time  |%varavg| %total
---------------------------------------------------------------
Pair    | 0.061414   | 0.068776   | 0.073146   |   1.1 | 38.07
Kspace  | 0.10079    | 0.10291    | 0.10516    |   0.4 | 56.96
Neigh   | 0          | 0          | 0          |   0.0 |  0.00
Comm    | 0.0059071  | 0.0081154  | 0.013277   |   2.1 |  4.49
Output  | 0          | 0          | 0          |   0.0 |  0.00
Modify  | 0          | 0          | 0          |   0.0 |  0.00
Other   |            | 0.0008749  |            |       |  0.48

Nlocal:    84 ave 87 max 77 min
Histogram: 1 0 0 0 1 0 0 5 1 4
Nghost:    2604.83 ave 2635 max 2572 min
Histogram: 2 0 2 0 1 2 1 1 2 1
Neighs:    18638.3 ave 19433 max 16979 min
Histogram: 1 0 0 1 0 1 2 3 3 1

Total # of neighbors = 223660
Ave neighs/atom = 221.885
Neighbor list builds = 0
Dangerous builds = 0
  triclinic box = (0 0 0) to (23.3007 23.3007 23.3007) with tilt (-0.077661 0 0)
WARNING: Resetting reneighboring criteria during minimization (../min.cpp:168)
Ewald initialization ...
  G vector (1/distance) = 0.365055
  estimated absolute RMS force accuracy = 1.94166e-05
  estimated relative force accuracy = 1.34841e-06
  KSpace vectors: actual max1d max3d = 2081 10 4630
                  kxmax kymax kzmax  = 10 10 10
Memory usage per processor = 4.56126 Mbytes
Step Temp E_pair E_mol TotEng Press 
     289           10   -18274.115            0   -18272.814   -8500.1199 
     299           10   -18274.138            0   -18272.836    -8466.253 
Loop time of 0.175411 on 12 procs for 10 steps with 1008 atoms

99.9% CPU use with 12 MPI tasks x no OpenMP threads

Minimization stats:
  Stopping criterion = linesearch alpha is zero
  Energy initial, next-to-last, final = 
        -18274.1154812     -18274.1381407     -18274.1381407
  Force two-norm initial, final = 0.804204 0.121472
  Force max component initial, final = 0.0848665 0.0129246
  Final line search alpha, max atom move = 4.76837e-07 6.16291e-09
  Iterations, force evaluations = 10 61

MPI task timing breakdown:
Section |  min time  |  avg time  |  max time  |%varavg| %total
---------------------------------------------------------------
Pair    | 0.059166   | 0.066443   | 0.071058   |   1.1 | 37.88
Kspace  | 0.097654   | 0.10013    | 0.10242    |   0.4 | 57.08
Neigh   | 0          | 0          | 0          |   0.0 |  0.00
Comm    | 0.0058451  | 0.0079647  | 0.012971   |   2.1 |  4.54
Output  | 0          | 0          | 0          |   0.0 |  0.00
Modify  | 0          | 0          | 0          |   0.0 |  0.00
Other   |            | 0.0008709  |            |       |  0.50

Nlocal:    84 ave 87 max 77 min
Histogram: 1 0 0 0 1 0 0 5 1 4
Nghost:    2604.83 ave 2635 max 2572 min
Histogram: 2 0 2 0 1 2 1 1 2 1
Neighs:    18636.8 ave 19431 max 16983 min
Histogram: 1 0 0 1 0 1 2 3 3 1

Total # of neighbors = 223641
Ave neighs/atom = 221.866
Neighbor list builds = 0
Dangerous builds = 0
  triclinic box = (0 0 0) to (23.3007 23.3007 23.3007) with tilt (-0.038842 0 0)
WARNING: Resetting reneighboring criteria during minimization (../min.cpp:168)
Ewald initialization ...
  G vector (1/distance) = 0.365055
  estimated absolute RMS force accuracy = 1.94166e-05
  estimated relative force accuracy = 1.34841e-06
  KSpace vectors: actual max1d max3d = 2082 10 4630
                  kxmax kymax kzmax  = 10 10 10
Memory usage per processor = 4.56126 Mbytes
Step Temp E_pair E_mol TotEng Press 
     299           10   -18274.192            0   -18272.891   -8513.5684 
     300           10   -18274.196            0   -18272.894   -8499.8226 
     306           10   -18274.198            0   -18272.896   -8492.0674 
Loop time of 0.271951 on 12 procs for 7 steps with 1008 atoms

99.9% CPU use with 12 MPI tasks x no OpenMP threads

Minimization stats:
  Stopping criterion = linesearch alpha is zero
  Energy initial, next-to-last, final = 
        -18274.1924519     -18274.1977973     -18274.1977973
  Force two-norm initial, final = 0.40229 0.0934694
  Force max component initial, final = 0.0424243 0.00802436
  Final line search alpha, max atom move = 9.53674e-07 7.65263e-09
  Iterations, force evaluations = 7 95

MPI task timing breakdown:
Section |  min time  |  avg time  |  max time  |%varavg| %total
---------------------------------------------------------------
Pair    | 0.092808   | 0.10305    | 0.11052    |   1.3 | 37.89
Kspace  | 0.15135    | 0.15543    | 0.15798    |   0.4 | 57.15
Neigh   | 0          | 0          | 0          |   0.0 |  0.00
Comm    | 0.0088947  | 0.012245   | 0.019969   |   2.6 |  4.50
Output  | 1.6928e-05 | 1.806e-05  | 2.0981e-05 |   0.0 |  0.01
Modify  | 0          | 0          | 0          |   0.0 |  0.00
Other   |            | 0.001208   |            |       |  0.44

Nlocal:    84 ave 87 max 77 min
Histogram: 1 0 0 0 1 0 0 5 1 4
Nghost:    2604.83 ave 2635 max 2572 min
Histogram: 2 0 2 0 1 2 1 1 2 1
Neighs:    18636.5 ave 19427 max 16981 min
Histogram: 1 0 0 1 0 1 2 3 3 1

Total # of neighbors = 223638
Ave neighs/atom = 221.863
Neighbor list builds = 0
Dangerous builds = 0
  triclinic box = (0 0 0) to (23.3007 23.3007 23.3007) with tilt (0 0 0)
WARNING: Resetting reneighboring criteria during minimization (../min.cpp:168)
Ewald initialization ...
  G vector (1/distance) = 0.365055
  estimated absolute RMS force accuracy = 1.94166e-05
  estimated relative force accuracy = 1.34841e-06
  KSpace vectors: actual max1d max3d = 2084 10 4630
                  kxmax kymax kzmax  = 10 10 10
Memory usage per processor = 4.56126 Mbytes
Step Temp E_pair E_mol TotEng Press 
     306           10   -18274.241            0    -18272.94   -8522.4572 
     309           10   -18274.241            0    -18272.94   -8518.2772 
Loop time of 0.0796004 on 12 procs for 3 steps with 1008 atoms

99.9% CPU use with 12 MPI tasks x no OpenMP threads

Minimization stats:
  Stopping criterion = linesearch alpha is zero
  Energy initial, next-to-last, final = 
        -18274.2414133     -18274.2414434     -18274.2414434
  Force two-norm initial, final = 0.00469481 0.0026961
  Force max component initial, final = 0.000335904 0.000389352
  Final line search alpha, max atom move = 0.000976562 3.80227e-07
  Iterations, force evaluations = 3 27

MPI task timing breakdown:
Section |  min time  |  avg time  |  max time  |%varavg| %total
---------------------------------------------------------------
Pair    | 0.027149   | 0.030088   | 0.032486   |   0.7 | 37.80
Kspace  | 0.044166   | 0.04556    | 0.046249   |   0.2 | 57.24
Neigh   | 0          | 0          | 0          |   0.0 |  0.00
Comm    | 0.0025702  | 0.0035603  | 0.0058198  |   1.4 |  4.47
Output  | 0          | 0          | 0          |   0.0 |  0.00
Modify  | 0          | 0          | 0          |   0.0 |  0.00
Other   |            | 0.0003921  |            |       |  0.49

Nlocal:    84 ave 87 max 77 min
Histogram: 1 0 0 0 1 0 0 5 1 4
Nghost:    2604.83 ave 2635 max 2572 min
Histogram: 2 0 2 0 1 2 1 1 2 1
Neighs:    18638.2 ave 19429 max 16981 min
Histogram: 1 0 0 1 0 1 2 3 3 1

Total # of neighbors = 223658
Ave neighs/atom = 221.883
Neighbor list builds = 0
Dangerous builds = 0
  triclinic box = (0 0 0) to (23.3007 23.3007 23.3007) with tilt (0.038842 0 0)
WARNING: Resetting reneighboring criteria during minimization (../min.cpp:168)
Ewald initialization ...
  G vector (1/distance) = 0.365055
  estimated absolute RMS force accuracy = 1.94166e-05
  estimated relative force accuracy = 1.34841e-06
  KSpace vectors: actual max1d max3d = 2082 10 4630
                  kxmax kymax kzmax  = 10 10 10
Memory usage per processor = 4.56126 Mbytes
Step Temp E_pair E_mol TotEng Press 
     309           10   -18274.263            0   -18272.961   -8526.8922 
     316           10    -18274.27            0   -18272.968   -8536.8504 
Loop time of 0.151977 on 12 procs for 7 steps with 1008 atoms

99.9% CPU use with 12 MPI tasks x no OpenMP threads

Minimization stats:
  Stopping criterion = linesearch alpha is zero
  Energy initial, next-to-last, final = 
        -18274.2631293      -18274.269857      -18274.269857
  Force two-norm initial, final = 0.402085 0.0920481
  Force max component initial, final = 0.0421892 0.00719376
  Final line search alpha, max atom move = 9.53674e-07 6.8605e-09
  Iterations, force evaluations = 7 53

MPI task timing breakdown:
Section |  min time  |  avg time  |  max time  |%varavg| %total
---------------------------------------------------------------
Pair    | 0.052046   | 0.057935   | 0.061079   |   0.9 | 38.12
Kspace  | 0.08513    | 0.086367   | 0.087921   |   0.2 | 56.83
Neigh   | 0          | 0          | 0          |   0.0 |  0.00
Comm    | 0.0050695  | 0.0069472  | 0.011301   |   2.0 |  4.57
Output  | 0          | 0          | 0          |   0.0 |  0.00
Modify  | 0          | 0          | 0          |   0.0 |  0.00
Other   |            | 0.0007275  |            |       |  0.48

Nlocal:    84 ave 87 max 77 min
Histogram: 1 0 0 0 1 0 0 5 1 4
Nghost:    2604.83 ave 2635 max 2572 min
Histogram: 2 0 2 0 1 2 1 1 2 1
Neighs:    18636.7 ave 19430 max 16984 min
Histogram: 1 0 0 1 0 1 2 3 3 1

Total # of neighbors = 223640
Ave neighs/atom = 221.865
Neighbor list builds = 0
Dangerous builds = 0
  triclinic box = (0 0 0) to (23.3007 23.3007 23.3007) with tilt (0.077661 0 0)
WARNING: Resetting reneighboring criteria during minimization (../min.cpp:168)
Ewald initialization ...
  G vector (1/distance) = 0.365055
  estimated absolute RMS force accuracy = 1.94166e-05
  estimated relative force accuracy = 1.34841e-06
  KSpace vectors: actual max1d max3d = 2081 10 4630
                  kxmax kymax kzmax  = 10 10 10
Memory usage per processor = 4.56126 Mbytes
Step Temp E_pair E_mol TotEng Press 
     316           10   -18274.254            0   -18272.952   -8525.9378 
     328           10    -18274.28            0   -18272.978   -8557.4839 
Loop time of 0.181139 on 12 procs for 12 steps with 1008 atoms

99.9% CPU use with 12 MPI tasks x no OpenMP threads

Minimization stats:
  Stopping criterion = linesearch alpha is zero
  Energy initial, next-to-last, final = 
         -18274.253913     -18274.2795936     -18274.2795936
  Force two-norm initial, final = 0.80397 0.0942421
  Force max component initial, final = 0.0843126 0.00739879
  Final line search alpha, max atom move = 9.53674e-07 7.05604e-09
  Iterations, force evaluations = 12 63

MPI task timing breakdown:
Section |  min time  |  avg time  |  max time  |%varavg| %total
---------------------------------------------------------------
Pair    | 0.061679   | 0.068763   | 0.073369   |   1.0 | 37.96
Kspace  | 0.10098    | 0.10332    | 0.10526    |   0.3 | 57.04
Neigh   | 0          | 0          | 0          |   0.0 |  0.00
Comm    | 0.0059304  | 0.0081614  | 0.013333   |   2.2 |  4.51
Output  | 0          | 0          | 0          |   0.0 |  0.00
Modify  | 0          | 0          | 0          |   0.0 |  0.00
Other   |            | 0.0008946  |            |       |  0.49

Nlocal:    84 ave 87 max 77 min
Histogram: 1 0 0 0 1 0 0 5 1 4
Nghost:    2604.83 ave 2635 max 2572 min
Histogram: 2 0 2 0 1 2 1 1 2 1
Neighs:    18636.2 ave 19429 max 16984 min
Histogram: 1 0 0 1 0 1 2 3 3 1

Total # of neighbors = 223634
Ave neighs/atom = 221.859
Neighbor list builds = 0
Dangerous builds = 0
  triclinic box = (0 0 0) to (23.3007 23.3007 23.3007) with tilt (0.116503 0 0)
WARNING: Resetting reneighboring criteria during minimization (../min.cpp:168)
Ewald initialization ...
  G vector (1/distance) = 0.365055
  estimated absolute RMS force accuracy = 1.94166e-05
  estimated relative force accuracy = 1.34841e-06
  KSpace vectors: actual max1d max3d = 2079 10 4630
                  kxmax kymax kzmax  = 10 10 10
Memory usage per processor = 4.56126 Mbytes
Step Temp E_pair E_mol TotEng Press 
     328           10   -18274.219            0   -18272.918   -8521.0424 
     340           10   -18274.274            0   -18272.972   -8577.3079 
Loop time of 0.187548 on 12 procs for 12 steps with 1008 atoms

99.9% CPU use with 12 MPI tasks x no OpenMP threads

Minimization stats:
  Stopping criterion = linesearch alpha is zero
  Energy initial, next-to-last, final = 
        -18274.2193607     -18274.2736875     -18274.2736875
  Force two-norm initial, final = 1.20613 0.141187
  Force max component initial, final = 0.126356 0.011157
  Final line search alpha, max atom move = 4.76837e-07 5.32006e-09
  Iterations, force evaluations = 12 65

MPI task timing breakdown:
Section |  min time  |  avg time  |  max time  |%varavg| %total
---------------------------------------------------------------
Pair    | 0.063656   | 0.071078   | 0.076677   |   1.1 | 37.90
Kspace  | 0.10386    | 0.1071     | 0.1092     |   0.4 | 57.10
Neigh   | 0          | 0          | 0          |   0.0 |  0.00
Comm    | 0.0061345  | 0.0084521  | 0.013801   |   2.2 |  4.51
Output  | 0          | 0          | 0          |   0.0 |  0.00
Modify  | 0          | 0          | 0          |   0.0 |  0.00
Other   |            | 0.0009197  |            |       |  0.49

Nlocal:    84 ave 87 max 77 min
Histogram: 1 0 0 0 1 0 0 5 1 4
Nghost:    2604.83 ave 2635 max 2572 min
Histogram: 2 0 2 0 1 2 1 1 2 1
Neighs:    18634.6 ave 19432 max 16986 min
Histogram: 1 0 0 1 0 1 2 3 3 1

Total # of neighbors = 223615
Ave neighs/atom = 221.84
Neighbor list builds = 0
Dangerous builds = 0
  triclinic box = (0 0 0) to (23.3007 23.3007 23.3007) with tilt (0 -0.116503 0)
WARNING: Resetting reneighboring criteria during minimization (../min.cpp:168)
Ewald initialization ...
  G vector (1/distance) = 0.365055
  estimated absolute RMS force accuracy = 1.94166e-05
  estimated relative force accuracy = 1.34841e-06
  KSpace vectors: actual max1d max3d = 2079 10 4630
                  kxmax kymax kzmax  = 10 10 10
Memory usage per processor = 4.56126 Mbytes
Step Temp E_pair E_mol TotEng Press 
     340           10   -18274.025            0   -18272.724   -8408.2569 
     350           10   -18274.079            0   -18272.777   -8474.8583 
     359           10   -18274.084            0   -18272.782   -8498.2752 
Loop time of 0.221783 on 12 procs for 19 steps with 1008 atoms

99.9% CPU use with 12 MPI tasks x no OpenMP threads

Minimization stats:
  Stopping criterion = linesearch alpha is zero
  Energy initial, next-to-last, final = 
        -18274.0253891      -18274.083541      -18274.083541
  Force two-norm initial, final = 1.22545 0.108433
  Force max component initial, final = 0.107586 0.012115
  Final line search alpha, max atom move = 9.53674e-07 1.15537e-08
  Iterations, force evaluations = 19 77

MPI task timing breakdown:
Section |  min time  |  avg time  |  max time  |%varavg| %total
---------------------------------------------------------------
Pair    | 0.075488   | 0.084368   | 0.090217   |   1.2 | 38.04
Kspace  | 0.12316    | 0.12627    | 0.12894    |   0.4 | 56.94
Neigh   | 0          | 0          | 0          |   0.0 |  0.00
Comm    | 0.0072846  | 0.009986   | 0.016219   |   2.3 |  4.50
Output  | 1.8835e-05 | 1.961e-05  | 2.1935e-05 |   0.0 |  0.01
Modify  | 0          | 0          | 0          |   0.0 |  0.00
Other   |            | 0.001135   |            |       |  0.51

Nlocal:    84 ave 87 max 77 min
Histogram: 1 0 0 0 1 0 0 5 1 4
Nghost:    2604.83 ave 2635 max 2572 min
Histogram: 2 0 2 0 1 2 1 1 2 1
Neighs:    18636 ave 19421 max 16994 min
Histogram: 1 0 0 1 0 1 2 3 3 1

Total # of neighbors = 223632
Ave neighs/atom = 221.857
Neighbor list builds = 0
Dangerous builds = 0
  triclinic box = (0 0 0) to (23.3007 23.3007 23.3007) with tilt (0 -0.077661 0)
WARNING: Resetting reneighboring criteria during minimization (../min.cpp:168)
Ewald initialization ...
  G vector (1/distance) = 0.365055
  estimated absolute RMS force accuracy = 1.94166e-05
  estimated relative force accuracy = 1.34841e-06
  KSpace vectors: actual max1d max3d = 2081 10 4630
                  kxmax kymax kzmax  = 10 10 10
Memory usage per processor = 4.56126 Mbytes
Step Temp E_pair E_mol TotEng Press 
     359           10   -18274.127            0   -18272.825   -8451.6572 
     369           10    -18274.15            0   -18272.849   -8484.6387 
Loop time of 0.175103 on 12 procs for 10 steps with 1008 atoms

99.9% CPU use with 12 MPI tasks x no OpenMP threads

Minimization stats:
  Stopping criterion = linesearch alpha is zero
  Energy initial, next-to-last, final = 
        -18274.1270295     -18274.1504034     -18274.1504034
  Force two-norm initial, final = 0.816915 0.133293
  Force max component initial, final = 0.0717707 0.0164748
  Final line search alpha, max atom move = 4.76837e-07 7.85578e-09
  Iterations, force evaluations = 10 61

MPI task timing breakdown:
Section |  min time  |  avg time  |  max time  |%varavg| %total
---------------------------------------------------------------
Pair    | 0.059467   | 0.066667   | 0.070422   |   1.0 | 38.07
Kspace  | 0.097889   | 0.099453   | 0.10165    |   0.3 | 56.80
Neigh   | 0          | 0          | 0          |   0.0 |  0.00
Comm    | 0.0059733  | 0.0081206  | 0.013169   |   2.1 |  4.64
Output  | 0          | 0          | 0          |   0.0 |  0.00
Modify  | 0          | 0          | 0          |   0.0 |  0.00
Other   |            | 0.0008626  |            |       |  0.49

Nlocal:    84 ave 87 max 77 min
Histogram: 1 0 0 0 1 0 0 5 1 4
Nghost:    2604.83 ave 2635 max 2572 min
Histogram: 2 0 2 0 1 2 1 1 2 1
Neighs:    18635.6 ave 19419 max 16987 min
Histogram: 1 0 0 1 0 1 2 3 3 1

Total # of neighbors = 223627
Ave neighs/atom = 221.852
Neighbor list builds = 0
Dangerous builds = 0
  triclinic box = (0 0 0) to (23.3007 23.3007 23.3007) with tilt (0 -0.038842 0)
WARNING: Resetting reneighboring criteria during minimization (../min.cpp:168)
Ewald initialization ...
  G vector (1/distance) = 0.365055
  estimated absolute RMS force accuracy = 1.94166e-05
  estimated relative force accuracy = 1.34841e-06
  KSpace vectors: actual max1d max3d = 2082 10 4630
                  kxmax kymax kzmax  = 10 10 10
Memory usage per processor = 4.56126 Mbytes
Step Temp E_pair E_mol TotEng Press 
     369           10     -18274.2            0   -18272.898   -8489.8884 
     375           10   -18274.204            0   -18272.902    -8496.767 
Loop time of 0.146531 on 12 procs for 6 steps with 1008 atoms

99.8% CPU use with 12 MPI tasks x no OpenMP threads

Minimization stats:
  Stopping criterion = linesearch alpha is zero
  Energy initial, next-to-last, final = 
        -18274.1998221     -18274.2041027     -18274.2041027
  Force two-norm initial, final = 0.408632 0.103999
  Force max component initial, final = 0.0359218 0.00957619
  Final line search alpha, max atom move = 9.53674e-07 9.13257e-09
  Iterations, force evaluations = 6 51

MPI task timing breakdown:
Section |  min time  |  avg time  |  max time  |%varavg| %total
---------------------------------------------------------------
Pair    | 0.05042    | 0.055802   | 0.058693   |   0.8 | 38.08
Kspace  | 0.082065   | 0.083115   | 0.084324   |   0.2 | 56.72
Neigh   | 0          | 0          | 0          |   0.0 |  0.00
Comm    | 0.0050883  | 0.00691    | 0.01109    |   1.9 |  4.72
Output  | 0          | 0          | 0          |   0.0 |  0.00
Modify  | 0          | 0          | 0          |   0.0 |  0.00
Other   |            | 0.0007043  |            |       |  0.48

Nlocal:    84 ave 87 max 77 min
Histogram: 1 0 0 0 1 0 0 5 1 4
Nghost:    2604.83 ave 2635 max 2572 min
Histogram: 2 0 2 0 1 2 1 1 2 1
Neighs:    18637.4 ave 19428 max 16986 min
Histogram: 1 0 0 1 0 1 2 3 3 1

Total # of neighbors = 223649
Ave neighs/atom = 221.874
Neighbor list builds = 0
Dangerous builds = 0
  triclinic box = (0 0 0) to (23.3007 23.3007 23.3007) with tilt (0 0 0)
WARNING: Resetting reneighboring criteria during minimization (../min.cpp:168)
Ewald initialization ...
  G vector (1/distance) = 0.365055
  estimated absolute RMS force accuracy = 1.94166e-05
  estimated relative force accuracy = 1.34841e-06
  KSpace vectors: actual max1d max3d = 2084 10 4630
                  kxmax kymax kzmax  = 10 10 10
Memory usage per processor = 4.56126 Mbytes
Step Temp E_pair E_mol TotEng Press 
     375           10   -18274.241            0    -18272.94   -8522.4572 
     378           10   -18274.241            0    -18272.94   -8518.2772 
Loop time of 0.0799014 on 12 procs for 3 steps with 1008 atoms

99.9% CPU use with 12 MPI tasks x no OpenMP threads

Minimization stats:
  Stopping criterion = linesearch alpha is zero
  Energy initial, next-to-last, final = 
        -18274.2414133     -18274.2414434     -18274.2414434
  Force two-norm initial, final = 0.00469481 0.0026961
  Force max component initial, final = 0.000335904 0.000389352
  Final line search alpha, max atom move = 0.000976562 3.80227e-07
  Iterations, force evaluations = 3 27

MPI task timing breakdown:
Section |  min time  |  avg time  |  max time  |%varavg| %total
---------------------------------------------------------------
Pair    | 0.027156   | 0.030346   | 0.032526   |   0.7 | 37.98
Kspace  | 0.04438    | 0.045562   | 0.046518   |   0.2 | 57.02
Neigh   | 0          | 0          | 0          |   0.0 |  0.00
Comm    | 0.0026283  | 0.0036081  | 0.0058646  |   1.4 |  4.52
Output  | 0          | 0          | 0          |   0.0 |  0.00
Modify  | 0          | 0          | 0          |   0.0 |  0.00
Other   |            | 0.0003858  |            |       |  0.48

Nlocal:    84 ave 87 max 77 min
Histogram: 1 0 0 0 1 0 0 5 1 4
Nghost:    2604.83 ave 2635 max 2572 min
Histogram: 2 0 2 0 1 2 1 1 2 1
Neighs:    18638.2 ave 19429 max 16981 min
Histogram: 1 0 0 1 0 1 2 3 3 1

Total # of neighbors = 223658
Ave neighs/atom = 221.883
Neighbor list builds = 0
Dangerous builds = 0
  triclinic box = (0 0 0) to (23.3007 23.3007 23.3007) with tilt (0 0.038842 0)
WARNING: Resetting reneighboring criteria during minimization (../min.cpp:168)
Ewald initialization ...
  G vector (1/distance) = 0.365055
  estimated absolute RMS force accuracy = 1.94166e-05
  estimated relative force accuracy = 1.34841e-06
  KSpace vectors: actual max1d max3d = 2082 10 4630
                  kxmax kymax kzmax  = 10 10 10
Memory usage per processor = 4.56126 Mbytes
Step Temp E_pair E_mol TotEng Press 
     378           10   -18274.259            0   -18272.958   -8551.0959 
     381           10   -18274.263            0   -18272.961   -8533.2601 
Loop time of 0.141996 on 12 procs for 3 steps with 1008 atoms

99.9% CPU use with 12 MPI tasks x no OpenMP threads

Minimization stats:
  Stopping criterion = linesearch alpha is zero
  Energy initial, next-to-last, final = 
        -18274.2592601     -18274.2628514     -18274.2628514
  Force two-norm initial, final = 0.408686 0.192127
  Force max component initial, final = 0.0359763 0.0166888
  Final line search alpha, max atom move = 2.38419e-07 3.97892e-09
  Iterations, force evaluations = 3 49

MPI task timing breakdown:
Section |  min time  |  avg time  |  max time  |%varavg| %total
---------------------------------------------------------------
Pair    | 0.048597   | 0.053784   | 0.05801    |   0.9 | 37.88
Kspace  | 0.078777   | 0.081238   | 0.082412   |   0.3 | 57.21
Neigh   | 0          | 0          | 0          |   0.0 |  0.00
Comm    | 0.0046065  | 0.0063407  | 0.01038    |   1.9 |  4.47
Output  | 0          | 0          | 0          |   0.0 |  0.00
Modify  | 0          | 0          | 0          |   0.0 |  0.00
Other   |            | 0.0006342  |            |       |  0.45

Nlocal:    84 ave 87 max 77 min
Histogram: 1 0 0 0 1 0 0 5 1 4
Nghost:    2604.83 ave 2635 max 2572 min
Histogram: 2 0 2 0 1 2 1 1 2 1
Neighs:    18637.8 ave 19424 max 16988 min
Histogram: 1 0 0 1 0 1 2 3 3 1

Total # of neighbors = 223654
Ave neighs/atom = 221.879
Neighbor list builds = 0
Dangerous builds = 0
  triclinic box = (0 0 0) to (23.3007 23.3007 23.3007) with tilt (0 0.077661 0)
WARNING: Resetting reneighboring criteria during minimization (../min.cpp:168)
Ewald initialization ...
  G vector (1/distance) = 0.365055
  estimated absolute RMS force accuracy = 1.94166e-05
  estimated relative force accuracy = 1.34841e-06
  KSpace vectors: actual max1d max3d = 2081 10 4630
                  kxmax kymax kzmax  = 10 10 10
Memory usage per processor = 4.56126 Mbytes
Step Temp E_pair E_mol TotEng Press 
     381           10   -18274.248            0   -18272.946   -8574.5483 
     393           10   -18274.272            0   -18272.971    -8528.276 
Loop time of 0.180768 on 12 procs for 12 steps with 1008 atoms

100.0% CPU use with 12 MPI tasks x no OpenMP threads

Minimization stats:
  Stopping criterion = linesearch alpha is zero
  Energy initial, next-to-last, final = 
        -18274.2477326     -18274.2724262     -18274.2724262
  Force two-norm initial, final = 0.817109 0.111403
  Force max component initial, final = 0.0719851 0.0111458
  Final line search alpha, max atom move = 9.53674e-07 1.06295e-08
  Iterations, force evaluations = 12 63

MPI task timing breakdown:
Section |  min time  |  avg time  |  max time  |%varavg| %total
---------------------------------------------------------------
Pair    | 0.061654   | 0.068835   | 0.073182   |   1.1 | 38.08
Kspace  | 0.10078    | 0.10286    | 0.10489    |   0.4 | 56.90
Neigh   | 0          | 0          | 0          |   0.0 |  0.00
Comm    | 0.0059369  | 0.0081763  | 0.013351   |   2.2 |  4.52
Output  | 0          | 0          | 0          |   0.0 |  0.00
Modify  | 0          | 0          | 0          |   0.0 |  0.00
Other   |            | 0.0008952  |            |       |  0.50

Nlocal:    84 ave 87 max 77 min
Histogram: 1 0 0 0 1 0 0 5 1 4
Nghost:    2604.83 ave 2635 max 2572 min
Histogram: 2 0 2 0 1 2 1 1 2 1
Neighs:    18639.8 ave 19431 max 16990 min
Histogram: 1 0 0 1 0 1 2 3 3 1

Total # of neighbors = 223677
Ave neighs/atom = 221.902
Neighbor list builds = 0
Dangerous builds = 0
  triclinic box = (0 0 0) to (23.3007 23.3007 23.3007) with tilt (0 0.116503 0)
WARNING: Resetting reneighboring criteria during minimization (../min.cpp:168)
Ewald initialization ...
  G vector (1/distance) = 0.365055
  estimated absolute RMS force accuracy = 1.94166e-05
  estimated relative force accuracy = 1.34841e-06
  KSpace vectors: actual max1d max3d = 2079 10 4630
                  kxmax kymax kzmax  = 10 10 10
Memory usage per processor = 4.56126 Mbytes
Step Temp E_pair E_mol TotEng Press 
     393           10   -18274.206            0   -18272.904   -8592.4077 
     400           10   -18274.258            0   -18272.956   -8558.5347 
     409           10   -18274.265            0   -18272.963   -8511.6646 
Loop time of 0.20897 on 12 procs for 16 steps with 1008 atoms

100.0% CPU use with 12 MPI tasks x no OpenMP threads

Minimization stats:
  Stopping criterion = linesearch alpha is zero
  Energy initial, next-to-last, final = 
        -18274.2055962     -18274.2645569     -18274.2645569
  Force two-norm initial, final = 1.22593 0.132283
  Force max component initial, final = 0.108085 0.0112595
  Final line search alpha, max atom move = 4.76837e-07 5.36893e-09
  Iterations, force evaluations = 16 73

MPI task timing breakdown:
Section |  min time  |  avg time  |  max time  |%varavg| %total
---------------------------------------------------------------
Pair    | 0.071693   | 0.079816   | 0.084283   |   1.1 | 38.19
Kspace  | 0.11671    | 0.11858    | 0.12077    |   0.3 | 56.75
Neigh   | 0          | 0          | 0          |   0.0 |  0.00
Comm    | 0.0069544  | 0.0094852  | 0.015478   |   2.3 |  4.54
Output  | 1.812e-05  | 1.9789e-05 | 2.1935e-05 |   0.0 |  0.01
Modify  | 0          | 0          | 0          |   0.0 |  0.00
Other   |            | 0.001069   |            |       |  0.51

Nlocal:    84 ave 87 max 77 min
Histogram: 1 0 0 0 1 0 0 5 1 4
Nghost:    2604.83 ave 2635 max 2572 min
Histogram: 2 0 2 0 1 2 1 1 2 1
Neighs:    18641.3 ave 19436 max 16994 min
Histogram: 1 0 0 1 0 1 2 3 3 1

Total # of neighbors = 223696
Ave neighs/atom = 221.921
Neighbor list builds = 0
Dangerous builds = 0
  triclinic box = (0 0 0) to (23.3007 23.3007 23.3007) with tilt (0 0 -0.116503)
WARNING: Resetting reneighboring criteria during minimization (../min.cpp:168)
Ewald initialization ...
  G vector (1/distance) = 0.365055
  estimated absolute RMS force accuracy = 1.94166e-05
  estimated relative force accuracy = 1.34841e-06
  KSpace vectors: actual max1d max3d = 2079 10 4630
                  kxmax kymax kzmax  = 10 10 10
Memory usage per processor = 4.56126 Mbytes
Step Temp E_pair E_mol TotEng Press 
     409           10   -18274.252            0    -18272.95   -8480.8995 
     422           10   -18274.313            0   -18273.012   -8373.2627 
Loop time of 0.197124 on 12 procs for 13 steps with 1008 atoms

99.8% CPU use with 12 MPI tasks x no OpenMP threads

Minimization stats:
  Stopping criterion = linesearch alpha is zero
  Energy initial, next-to-last, final = 
        -18274.2518315     -18274.3134587     -18274.3134587
  Force two-norm initial, final = 1.25617 0.162034
  Force max component initial, final = 0.130169 0.0154848
  Final line search alpha, max atom move = 2.38419e-07 3.69188e-09
  Iterations, force evaluations = 13 69

MPI task timing breakdown:
Section |  min time  |  avg time  |  max time  |%varavg| %total
---------------------------------------------------------------
Pair    | 0.067131   | 0.075209   | 0.079432   |   1.1 | 38.15
Kspace  | 0.11009    | 0.11186    | 0.11431    |   0.3 | 56.74
Neigh   | 0          | 0          | 0          |   0.0 |  0.00
Comm    | 0.0066507  | 0.0090759  | 0.014731   |   2.2 |  4.60
Output  | 0          | 0          | 0          |   0.0 |  0.00
Modify  | 0          | 0          | 0          |   0.0 |  0.00
Other   |            | 0.0009832  |            |       |  0.50

Nlocal:    84 ave 87 max 77 min
Histogram: 1 0 0 0 1 0 0 5 1 4
Nghost:    2604.83 ave 2635 max 2572 min
Histogram: 2 0 2 0 1 2 1 1 2 1
Neighs:    18641.2 ave 19430 max 16989 min
Histogram: 1 0 0 1 0 1 2 3 3 1

Total # of neighbors = 223695
Ave neighs/atom = 221.92
Neighbor list builds = 0
Dangerous builds = 0
  triclinic box = (0 0 0) to (23.3007 23.3007 23.3007) with tilt (0 0 -0.077661)
WARNING: Resetting reneighboring criteria during minimization (../min.cpp:168)
Ewald initialization ...
  G vector (1/distance) = 0.365055
  estimated absolute RMS force accuracy = 1.94166e-05
  estimated relative force accuracy = 1.34841e-06
  KSpace vectors: actual max1d max3d = 2081 10 4630
                  kxmax kymax kzmax  = 10 10 10
Memory usage per processor = 4.56126 Mbytes
Step Temp E_pair E_mol TotEng Press 
     422           10   -18274.279            0   -18272.977   -8500.1945 
     435           10   -18274.306            0   -18273.005   -8422.1986 
Loop time of 0.185908 on 12 procs for 13 steps with 1008 atoms

99.9% CPU use with 12 MPI tasks x no OpenMP threads

Minimization stats:
  Stopping criterion = linesearch alpha is zero
  Energy initial, next-to-last, final = 
        -18274.2787079     -18274.3063996     -18274.3063996
  Force two-norm initial, final = 0.837491 0.107648
  Force max component initial, final = 0.0867834 0.0100765
  Final line search alpha, max atom move = 9.53674e-07 9.6097e-09
  Iterations, force evaluations = 13 65

MPI task timing breakdown:
Section |  min time  |  avg time  |  max time  |%varavg| %total
---------------------------------------------------------------
Pair    | 0.06364    | 0.0708     | 0.07494    |   1.0 | 38.08
Kspace  | 0.10397    | 0.10581    | 0.10768    |   0.3 | 56.92
Neigh   | 0          | 0          | 0          |   0.0 |  0.00
Comm    | 0.0060899  | 0.0083718  | 0.013671   |   2.2 |  4.50
Output  | 0          | 0          | 0          |   0.0 |  0.00
Modify  | 0          | 0          | 0          |   0.0 |  0.00
Other   |            | 0.0009247  |            |       |  0.50

Nlocal:    84 ave 87 max 77 min
Histogram: 1 0 0 0 1 0 0 5 1 4
Nghost:    2604.83 ave 2635 max 2572 min
Histogram: 2 0 2 0 1 2 1 1 2 1
Neighs:    18638.1 ave 19432 max 16988 min
Histogram: 1 0 0 1 0 1 2 3 3 1

Total # of neighbors = 223657
Ave neighs/atom = 221.882
Neighbor list builds = 0
Dangerous builds = 0
  triclinic box = (0 0 0) to (23.3007 23.3007 23.3007) with tilt (0 0 -0.038842)
WARNING: Resetting reneighboring criteria during minimization (../min.cpp:168)
Ewald initialization ...
  G vector (1/distance) = 0.365055
  estimated absolute RMS force accuracy = 1.94166e-05
  estimated relative force accuracy = 1.34841e-06
  KSpace vectors: actual max1d max3d = 2082 10 4630
                  kxmax kymax kzmax  = 10 10 10
[...]
  Stopping criterion = linesearch alpha is zero
  Energy initial, next-to-last, final = 
        -18274.4614623     -18274.4659371     -18274.4659371
  Force two-norm initial, final = 0.410157 0.148249
  Force max component initial, final = 0.0355609 0.0157916
  Final line search alpha, max atom move = 4.76837e-07 7.53002e-09
  Iterations, force evaluations = 4 49

MPI task timing breakdown:
Section |  min time  |  avg time  |  max time  |%varavg| %total
---------------------------------------------------------------
Pair    | 0.047904   | 0.053615   | 0.056484   |   0.9 | 38.33
Kspace  | 0.077512   | 0.079245   | 0.080927   |   0.3 | 56.65
Neigh   | 0          | 0          | 0          |   0.0 |  0.00
Comm    | 0.0046356  | 0.006376   | 0.010456   |   1.9 |  4.56
Output  | 0          | 0          | 0          |   0.0 |  0.00
Modify  | 0          | 0          | 0          |   0.0 |  0.00
Other   |            | 0.0006431  |            |       |  0.46

Nlocal:    84 ave 87 max 77 min
Histogram: 1 0 0 0 0 1 2 2 2 4
Nghost:    2605.83 ave 2637 max 2576 min
Histogram: 2 0 2 0 2 2 0 2 1 1
Neighs:    18639.1 ave 19359 max 16982 min
Histogram: 1 0 0 0 1 0 3 3 2 2

Total # of neighbors = 223669
Ave neighs/atom = 221.894
Neighbor list builds = 0
Dangerous builds = 0
  triclinic box = (0 0 0) to (23.3007 23.3007 23.3007) with tilt (0 0.077661 0)
WARNING: Resetting reneighboring criteria during minimization (../min.cpp:168)
Ewald initialization ...
  G vector (1/distance) = 0.365055
  estimated absolute RMS force accuracy = 1.94166e-05
  estimated relative force accuracy = 1.34841e-06
  KSpace vectors: actual max1d max3d = 2081 10 4630
                  kxmax kymax kzmax  = 10 10 10
Memory usage per processor = 4.56126 Mbytes
Step Temp E_pair E_mol TotEng Press 
     881           10   -18274.455            0   -18273.154   -8065.0703 
     892           10   -18274.479            0   -18273.178   -8019.6066 
Loop time of 0.179621 on 12 procs for 11 steps with 1008 atoms

100.2% CPU use with 12 MPI tasks x no OpenMP threads

Minimization stats:
  Stopping criterion = linesearch alpha is zero
  Energy initial, next-to-last, final = 
        -18274.4553733     -18274.4792616     -18274.4792616
  Force two-norm initial, final = 0.820145 0.12087
  Force max component initial, final = 0.0711495 0.0160083
  Final line search alpha, max atom move = 4.76837e-07 7.63334e-09
  Iterations, force evaluations = 11 63

MPI task timing breakdown:
Section |  min time  |  avg time  |  max time  |%varavg| %total
---------------------------------------------------------------
Pair    | 0.061967   | 0.068707   | 0.072805   |   1.0 | 38.25
Kspace  | 0.099241   | 0.10186    | 0.10372    |   0.4 | 56.71
Neigh   | 0          | 0          | 0          |   0.0 |  0.00
Comm    | 0.0059924  | 0.0081738  | 0.013346   |   2.1 |  4.55
Output  | 0          | 0          | 0          |   0.0 |  0.00
Modify  | 0          | 0          | 0          |   0.0 |  0.00
Other   |            | 0.0008852  |            |       |  0.49

Nlocal:    84 ave 87 max 77 min
Histogram: 1 0 0 0 0 1 2 2 2 4
Nghost:    2605.83 ave 2637 max 2576 min
Histogram: 2 0 2 0 2 2 0 2 1 1
Neighs:    18637.3 ave 19360 max 16984 min
Histogram: 1 0 0 0 1 0 3 3 2 2

Total # of neighbors = 223648
Ave neighs/atom = 221.873
Neighbor list builds = 0
Dangerous builds = 0
  triclinic box = (0 0 0) to (23.3007 23.3007 23.3007) with tilt (0 0.116503 0)
WARNING: Resetting reneighboring criteria during minimization (../min.cpp:168)
Ewald initialization ...
  G vector (1/distance) = 0.365055
  estimated absolute RMS force accuracy = 1.94166e-05
  estimated relative force accuracy = 1.34841e-06
  KSpace vectors: actual max1d max3d = 2079 10 4630
                  kxmax kymax kzmax  = 10 10 10
Memory usage per processor = 4.56126 Mbytes
Step Temp E_pair E_mol TotEng Press 
     892           10   -18274.417            0   -18273.115   -8084.5511 
     900           10   -18274.469            0   -18273.168   -8047.3397 
     911           10   -18274.477            0   -18273.175   -7983.6373 
Loop time of 0.315367 on 12 procs for 19 steps with 1008 atoms

99.9% CPU use with 12 MPI tasks x no OpenMP threads

Minimization stats:
  Stopping criterion = linesearch alpha is zero
  Energy initial, next-to-last, final = 
        -18274.4165011     -18274.4765005     -18274.4765005
  Force two-norm initial, final = 1.23042 0.103089
  Force max component initial, final = 0.106819 0.00985293
  Final line search alpha, max atom move = 9.53674e-07 9.39649e-09
  Iterations, force evaluations = 19 111

MPI task timing breakdown:
Section |  min time  |  avg time  |  max time  |%varavg| %total
---------------------------------------------------------------
Pair    | 0.10775    | 0.12023    | 0.12838    |   1.4 | 38.13
Kspace  | 0.1739     | 0.17943    | 0.18295    |   0.5 | 56.90
Neigh   | 0          | 0          | 0          |   0.0 |  0.00
Comm    | 0.010349   | 0.014188   | 0.023263   |   2.8 |  4.50
Output  | 1.7881e-05 | 1.8378e-05 | 2.0981e-05 |   0.0 |  0.01
Modify  | 0          | 0          | 0          |   0.0 |  0.00
Other   |            | 0.001496   |            |       |  0.47

Nlocal:    84 ave 87 max 77 min
Histogram: 1 0 0 0 0 1 2 2 2 4
Nghost:    2605.83 ave 2637 max 2576 min
Histogram: 2 0 2 0 2 2 0 2 1 1
Neighs:    18637 ave 19365 max 16976 min
Histogram: 1 0 0 0 1 0 3 3 2 2

Total # of neighbors = 223644
Ave neighs/atom = 221.869
Neighbor list builds = 0
Dangerous builds = 0
  triclinic box = (0 0 0) to (23.3007 23.3007 23.3007) with tilt (0 0 -0.116503)
WARNING: Resetting reneighboring criteria during minimization (../min.cpp:168)
Ewald initialization ...
  G vector (1/distance) = 0.365055
  estimated absolute RMS force accuracy = 1.94166e-05
  estimated relative force accuracy = 1.34841e-06
  KSpace vectors: actual max1d max3d = 2079 10 4630
                  kxmax kymax kzmax  = 10 10 10
Memory usage per processor = 4.56126 Mbytes
Step Temp E_pair E_mol TotEng Press 
     911           10   -18274.427            0   -18273.125   -7953.8252 
     921           10   -18274.483            0   -18273.181     -7847.25 
Loop time of 0.179875 on 12 procs for 10 steps with 1008 atoms

99.7% CPU use with 12 MPI tasks x no OpenMP threads

Minimization stats:
  Stopping criterion = linesearch alpha is zero
  Energy initial, next-to-last, final = 
        -18274.4270945     -18274.4828661     -18274.4828661
  Force two-norm initial, final = 1.25807 0.219542
  Force max component initial, final = 0.129391 0.0219333
  Final line search alpha, max atom move = 2.38419e-07 5.2293e-09
  Iterations, force evaluations = 10 63

MPI task timing breakdown:
Section |  min time  |  avg time  |  max time  |%varavg| %total
---------------------------------------------------------------
Pair    | 0.061529   | 0.06883    | 0.073281   |   1.1 | 38.27
Kspace  | 0.099081   | 0.10202    | 0.1042     |   0.4 | 56.72
Neigh   | 0          | 0          | 0          |   0.0 |  0.00
Comm    | 0.0060289  | 0.0081682  | 0.013334   |   2.1 |  4.54
Output  | 0          | 0          | 0          |   0.0 |  0.00
Modify  | 0          | 0          | 0          |   0.0 |  0.00
Other   |            | 0.0008599  |            |       |  0.48

Nlocal:    84 ave 87 max 77 min
Histogram: 1 0 0 0 0 1 2 2 2 4
Nghost:    2605.83 ave 2637 max 2576 min
Histogram: 2 0 2 0 2 2 0 2 1 1
Neighs:    18642.8 ave 19359 max 16989 min
Histogram: 1 0 0 0 1 0 3 3 1 3

Total # of neighbors = 223713
Ave neighs/atom = 221.938
Neighbor list builds = 0
Dangerous builds = 0
  triclinic box = (0 0 0) to (23.3007 23.3007 23.3007) with tilt (0 0 -0.077661)
WARNING: Resetting reneighboring criteria during minimization (../min.cpp:168)
Ewald initialization ...
  G vector (1/distance) = 0.365055
  estimated absolute RMS force accuracy = 1.94166e-05
  estimated relative force accuracy = 1.34841e-06
  KSpace vectors: actual max1d max3d = 2081 10 4630
                  kxmax kymax kzmax  = 10 10 10
Memory usage per processor = 4.56126 Mbytes
Step Temp E_pair E_mol TotEng Press 
     921           10   -18274.458            0   -18273.157   -7976.8201 
     938           10   -18274.486            0   -18273.184   -7904.6708 
Loop time of 0.202557 on 12 procs for 17 steps with 1008 atoms

100.2% CPU use with 12 MPI tasks x no OpenMP threads

Minimization stats:
  Stopping criterion = linesearch alpha is zero
  Energy initial, next-to-last, final = 
        -18274.4581889      -18274.486115      -18274.486115
  Force two-norm initial, final = 0.838786 0.080315
  Force max component initial, final = 0.0862634 0.00667002
  Final line search alpha, max atom move = 1.90735e-06 1.27221e-08
  Iterations, force evaluations = 17 71

MPI task timing breakdown:
Section |  min time  |  avg time  |  max time  |%varavg| %total
---------------------------------------------------------------
Pair    | 0.069017   | 0.077367   | 0.082291   |   1.2 | 38.20
Kspace  | 0.11181    | 0.11505    | 0.1176     |   0.4 | 56.80
Neigh   | 0          | 0          | 0          |   0.0 |  0.00
Comm    | 0.0066597  | 0.0091151  | 0.014974   |   2.2 |  4.50
Output  | 0          | 0          | 0          |   0.0 |  0.00
Modify  | 0          | 0          | 0          |   0.0 |  0.00
Other   |            | 0.001029   |            |       |  0.51

Nlocal:    84 ave 87 max 77 min
Histogram: 1 0 0 0 0 1 2 2 2 4
Nghost:    2605.83 ave 2637 max 2576 min
Histogram: 2 0 2 0 2 2 0 2 1 1
Neighs:    18641.3 ave 19359 max 16992 min
Histogram: 1 0 0 0 1 0 3 3 2 2

Total # of neighbors = 223696
Ave neighs/atom = 221.921
Neighbor list builds = 0
Dangerous builds = 0
  triclinic box = (0 0 0) to (23.3007 23.3007 23.3007) with tilt (0 0 -0.038842)
WARNING: Resetting reneighboring criteria during minimization (../min.cpp:168)
Ewald initialization ...
  G vector (1/distance) = 0.365055
  estimated absolute RMS force accuracy = 1.94166e-05
  estimated relative force accuracy = 1.34841e-06
  KSpace vectors: actual max1d max3d = 2082 10 4630
                  kxmax kymax kzmax  = 10 10 10
Memory usage per processor = 4.56126 Mbytes
Step Temp E_pair E_mol TotEng Press 
     938           10   -18274.461            0   -18273.159   -7994.8192 
     948           10   -18274.469            0   -18273.167    -7950.919 
Loop time of 0.163438 on 12 procs for 10 steps with 1008 atoms

99.9% CPU use with 12 MPI tasks x no OpenMP threads

Minimization stats:
  Stopping criterion = linesearch alpha is zero
  Energy initial, next-to-last, final = 
        -18274.4610918     -18274.4691139     -18274.4691139
  Force two-norm initial, final = 0.419685 0.0729378
  Force max component initial, final = 0.0431832 0.00748347
  Final line search alpha, max atom move = 1.90735e-06 1.42736e-08
  Iterations, force evaluations = 10 57

MPI task timing breakdown:
Section |  min time  |  avg time  |  max time  |%varavg| %total
---------------------------------------------------------------
Pair    | 0.05533    | 0.062311   | 0.066338   |   1.0 | 38.13
Kspace  | 0.090258   | 0.092921   | 0.09524    |   0.4 | 56.85
Neigh   | 0          | 0          | 0          |   0.0 |  0.00
Comm    | 0.0054111  | 0.0073969  | 0.012115   |   2.0 |  4.53
Output  | 0          | 0          | 0          |   0.0 |  0.00
Modify  | 0          | 0          | 0          |   0.0 |  0.00
Other   |            | 0.0008081  |            |       |  0.49

Nlocal:    84 ave 87 max 77 min
Histogram: 1 0 0 0 0 1 2 2 2 4
Nghost:    2605.83 ave 2637 max 2576 min
Histogram: 2 0 2 0 2 2 0 2 1 1
Neighs:    18640.2 ave 19360 max 16991 min
Histogram: 1 0 0 0 1 0 3 3 2 2

Total # of neighbors = 223683
Ave neighs/atom = 221.908
Neighbor list builds = 0
Dangerous builds = 0
  triclinic box = (0 0 0) to (23.3007 23.3007 23.3007) with tilt (0 0 0)
WARNING: Resetting reneighboring criteria during minimization (../min.cpp:168)
Ewald initialization ...
  G vector (1/distance) = 0.365055
  estimated absolute RMS force accuracy = 1.94166e-05
  estimated relative force accuracy = 1.34841e-06
  KSpace vectors: actual max1d max3d = 2084 10 4630
                  kxmax kymax kzmax  = 10 10 10
Memory usage per processor = 4.56126 Mbytes
Step Temp E_pair E_mol TotEng Press 
     948           10    -18274.44            0   -18273.138   -8008.9791 
     950           10    -18274.44            0   -18273.138   -8006.7377 
Loop time of 0.0675618 on 12 procs for 2 steps with 1008 atoms

99.9% CPU use with 12 MPI tasks x no OpenMP threads

Minimization stats:
  Stopping criterion = linesearch alpha is zero
  Energy initial, next-to-last, final = 
        -18274.4397158     -18274.4397545     -18274.4397545
  Force two-norm initial, final = 0.00470749 0.00316309
  Force max component initial, final = 0.000342603 0.000254858
  Final line search alpha, max atom move = 0.000976562 2.48885e-07
  Iterations, force evaluations = 2 23

MPI task timing breakdown:
Section |  min time  |  avg time  |  max time  |%varavg| %total
---------------------------------------------------------------
Pair    | 0.023268   | 0.025954   | 0.027195   |   0.6 | 38.41
Kspace  | 0.037462   | 0.038149   | 0.038877   |   0.2 | 56.47
Neigh   | 0          | 0          | 0          |   0.0 |  0.00
Comm    | 0.0022852  | 0.0031421  | 0.0051131  |   1.3 |  4.65
Output  | 0          | 0          | 0          |   0.0 |  0.00
Modify  | 0          | 0          | 0          |   0.0 |  0.00
Other   |            | 0.0003165  |            |       |  0.47

Nlocal:    84 ave 87 max 77 min
Histogram: 1 0 0 0 0 1 2 2 2 4
Nghost:    2605.83 ave 2637 max 2576 min
Histogram: 2 0 2 0 2 2 0 2 1 1
Neighs:    18638.6 ave 19359 max 16989 min
Histogram: 1 0 0 0 1 0 3 3 2 2

Total # of neighbors = 223663
Ave neighs/atom = 221.888
Neighbor list builds = 0
Dangerous builds = 0
  triclinic box = (0 0 0) to (23.3007 23.3007 23.3007) with tilt (0 0 0.038842)
WARNING: Resetting reneighboring criteria during minimization (../min.cpp:168)
Ewald initialization ...
  G vector (1/distance) = 0.365055
  estimated absolute RMS force accuracy = 1.94166e-05
  estimated relative force accuracy = 1.34841e-06
  KSpace vectors: actual max1d max3d = 2082 10 4630
                  kxmax kymax kzmax  = 10 10 10
Memory usage per processor = 4.56126 Mbytes
Step Temp E_pair E_mol TotEng Press 
     950           10    -18274.39            0   -18273.088   -8018.0135 
     954           10   -18274.395            0   -18273.093   -8039.9163 
Loop time of 0.141696 on 12 procs for 4 steps with 1008 atoms

100.0% CPU use with 12 MPI tasks x no OpenMP threads

Minimization stats:
  Stopping criterion = linesearch alpha is zero
  Energy initial, next-to-last, final = 
        -18274.3896297     -18274.3947226     -18274.3947226
  Force two-norm initial, final = 0.419382 0.153561
  Force max component initial, final = 0.04297 0.0208756
  Final line search alpha, max atom move = 4.76837e-07 9.95426e-09
  Iterations, force evaluations = 4 49

MPI task timing breakdown:
Section |  min time  |  avg time  |  max time  |%varavg| %total
---------------------------------------------------------------
Pair    | 0.047906   | 0.053832   | 0.058011   |   1.0 | 37.99
Kspace  | 0.077795   | 0.080773   | 0.082669   |   0.4 | 57.00
Neigh   | 0          | 0          | 0          |   0.0 |  0.00
Comm    | 0.0047488  | 0.0064582  | 0.010525   |   1.9 |  4.56
Output  | 0          | 0          | 0          |   0.0 |  0.00
Modify  | 0          | 0          | 0          |   0.0 |  0.00
Other   |            | 0.0006327  |            |       |  0.45

Nlocal:    84 ave 87 max 77 min
Histogram: 1 0 0 0 0 1 2 2 2 4
Nghost:    2605.83 ave 2637 max 2576 min
Histogram: 2 0 2 0 2 2 0 2 1 1
Neighs:    18636.2 ave 19360 max 16983 min
Histogram: 1 0 0 0 1 0 3 3 2 2

Total # of neighbors = 223634
Ave neighs/atom = 221.859
Neighbor list builds = 0
Dangerous builds = 0
  triclinic box = (0 0 0) to (23.3007 23.3007 23.3007) with tilt (0 0 0.077661)
WARNING: Resetting reneighboring criteria during minimization (../min.cpp:168)
Ewald initialization ...
  G vector (1/distance) = 0.365055
  estimated absolute RMS force accuracy = 1.94166e-05
  estimated relative force accuracy = 1.34841e-06
  KSpace vectors: actual max1d max3d = 2081 10 4630
                  kxmax kymax kzmax  = 10 10 10
Memory usage per processor = 4.56126 Mbytes
Step Temp E_pair E_mol TotEng Press 
     954           10   -18274.309            0   -18273.007   -8021.4196 
     968           10   -18274.336            0   -18273.034   -8091.8539 
Loop time of 0.191074 on 12 procs for 14 steps with 1008 atoms

99.9% CPU use with 12 MPI tasks x no OpenMP threads

Minimization stats:
  Stopping criterion = linesearch alpha is zero
  Energy initial, next-to-last, final = 
         -18274.308524     -18274.3359869     -18274.3359869
  Force two-norm initial, final = 0.83875 0.100188
  Force max component initial, final = 0.0859964 0.0081174
  Final line search alpha, max atom move = 9.53674e-07 7.74135e-09
  Iterations, force evaluations = 14 67

MPI task timing breakdown:
Section |  min time  |  avg time  |  max time  |%varavg| %total
---------------------------------------------------------------
Pair    | 0.065409   | 0.073139   | 0.077649   |   1.1 | 38.28
Kspace  | 0.10537    | 0.1083     | 0.11056    |   0.4 | 56.68
Neigh   | 0          | 0          | 0          |   0.0 |  0.00
Comm    | 0.0063248  | 0.0086615  | 0.014207   |   2.2 |  4.53
Output  | 0          | 0          | 0          |   0.0 |  0.00
Modify  | 0          | 0          | 0          |   0.0 |  0.00
Other   |            | 0.0009725  |            |       |  0.51

Nlocal:    84 ave 87 max 77 min
Histogram: 1 0 0 0 0 1 2 2 2 4
Nghost:    2605.83 ave 2637 max 2576 min
Histogram: 2 0 2 0 2 2 0 2 1 1
Neighs:    18635.8 ave 19358 max 16980 min
Histogram: 1 0 0 0 1 0 3 3 2 2

Total # of neighbors = 223630
Ave neighs/atom = 221.855
Neighbor list builds = 0
Dangerous builds = 0
  triclinic box = (0 0 0) to (23.3007 23.3007 23.3007) with tilt (0 0 0.116503)
WARNING: Resetting reneighboring criteria during minimization (../min.cpp:168)
Ewald initialization ...
  G vector (1/distance) = 0.365055
  estimated absolute RMS force accuracy = 1.94166e-05
  estimated relative force accuracy = 1.34841e-06
  KSpace vectors: actual max1d max3d = 2079 10 4630
                  kxmax kymax kzmax  = 10 10 10
Memory usage per processor = 4.56126 Mbytes
Step Temp E_pair E_mol TotEng Press 
     968           10   -18274.206            0   -18272.905   -8021.8104 
     989           10   -18274.265            0   -18272.964   -8123.6983 
Loop time of 0.234828 on 12 procs for 21 steps with 1008 atoms

99.8% CPU use with 12 MPI tasks x no OpenMP threads

Minimization stats:
  Stopping criterion = linesearch alpha is zero
  Energy initial, next-to-last, final = 
        -18274.2062859      -18274.265464      -18274.265464
  Force two-norm initial, final = 1.25846 0.0855375
  Force max component initial, final = 0.129039 0.00719399
  Final line search alpha, max atom move = 9.53674e-07 6.86072e-09
  Iterations, force evaluations = 21 83

MPI task timing breakdown:
Section |  min time  |  avg time  |  max time  |%varavg| %total
---------------------------------------------------------------
Pair    | 0.080845   | 0.090236   | 0.09468    |   1.2 | 38.43
Kspace  | 0.13013    | 0.13265    | 0.13528    |   0.4 | 56.49
Neigh   | 0          | 0          | 0          |   0.0 |  0.00
Comm    | 0.007829   | 0.010727   | 0.01755    |   2.4 |  4.57
Output  | 0          | 0          | 0          |   0.0 |  0.00
Modify  | 0          | 0          | 0          |   0.0 |  0.00
Other   |            | 0.001216   |            |       |  0.52

Nlocal:    84 ave 87 max 77 min
Histogram: 1 0 0 0 0 1 2 2 2 4
Nghost:    2605.83 ave 2637 max 2576 min
Histogram: 2 0 2 0 2 2 0 2 1 1
Neighs:    18635.2 ave 19352 max 16976 min
Histogram: 1 0 0 0 1 0 3 3 2 2

Total # of neighbors = 223623
Ave neighs/atom = 221.848
Neighbor list builds = 0
Dangerous builds = 0
Total wall time: 0:00:16
