ITEM: TIMESTEP
0
ITEM: NUMBER OF ATOMS
1008
ITEM: BOX BOUNDS xy xz yz pp pp pp
0.0 23.3006801605 0.0
0.0 23.3006801605 0.0
0.0 23.3006801605 0.0
ITEM: ATOMS id type x y z
1 1 4.200764179229736 -7.027974128723145 -8.091156005859375 
2 1 0.100937947630882 6.233808517456055 -1.297528862953186 
3 1 -10.975838661193848 5.545691490173340 -3.271282911300659 
4 1 -1.352391719818115 3.162918806076050 -1.366709709167480 
5 1 5.950362682342529 11.649868965148926 -11.504095077514648 
6 1 0.056122351437807 -2.369013786315918 10.279306411743164 
7 1 8.067613601684570 0.156224295496941 -3.338660717010498 
8 1 -4.097722530364990 -1.178212761878967 -4.659480571746826 
9 1 -9.723302841186523 10.309825897216797 -1.593148350715637 
10 1 5.157204151153564 -0.244939386844635 -9.646575927734375 
11 1 9.586575508117676 2.125461339950562 7.027858257293701 
12 1 9.101708412170410 -2.831097126007080 4.487585544586182 
13 1 0.729243338108063 3.328391790390015 9.516847610473633 
14 1 -6.796556949615479 4.460908889770508 -1.279409766197205 
15 1 -5.335381984710693 -3.868501901626587 5.438776016235352 
16 1 2.939546823501587 -9.109773635864258 4.471669197082520 
17 1 -10.377348899841309 3.591969728469849 5.781357765197754 
18 1 -9.572769165039062 2.217145442962646 -2.327992916107178 
19 1 -0.859571933746338 -1.654441833496094 4.902863502502441 
20 1 -10.242254257202148 -2.560701608657837 8.275405883789062 
21 1 10.868621826171875 -5.663462638854980 5.214136123657227 
22 1 -0.027169972658157 -7.190687179565430 -3.460744857788086 
23 1 -5.783032894134521 -7.151427745819092 7.291575431823730 
24 1 7.844875335693359 4.702614784240723 9.037720680236816 
25 1 7.239427566528320 -2.570935726165771 9.309458732604980 
26 1 -5.712282180786133 6.584416389465332 6.955285549163818 
27 1 8.142516136169434 -10.814822196960449 2.392953872680664 
28 1 0.274746656417847 10.278557777404785 6.157196521759033 
29 1 -3.081436395645142 -11.026695251464844 -4.610738754272461 
30 1 -6.099197864532471 3.030831575393677 -7.441226959228516 
31 1 -1.373754501342773 5.170148372650146 -7.414388179779053 
32 1 11.616667747497559 6.787684917449951 6.331291675567627 
33 1 4.624113559722900 6.077938079833984 1.463533639907837 
34 1 2.087365865707397 3.446119785308838 0.111932434141636 
35 1 0.425383746623993 -1.568600416183472 -5.496467113494873 
36 1 -10.487524986267090 -11.340974807739258 10.226037979125977 
37 1 11.531030654907227 -0.592674851417542 5.517323970794678 
38 1 -4.711689949035645 1.424866437911987 -1.468089222908020 
39 1 4.434410572052002 -4.057038307189941 -6.117549419403076 
40 1 -7.218965053558350 -4.581380844116211 2.399131298065186 
41 1 -3.334585666656494 -6.945006370544434 -5.276215553283691 
42 1 3.163579702377319 -10.288418769836426 -9.975054740905762 
43 1 -8.463932037353516 5.396966934204102 -9.101082801818848 
44 1 -2.322002410888672 -9.004920959472656 -1.766353964805603 
45 1 -8.399501800537109 10.718771934509277 7.614497661590576 
46 1 0.861228406429291 9.336844444274902 9.734967231750488 
47 1 7.299474716186523 -9.062539100646973 -4.435457229614258 
48 1 4.952836990356445 -8.954142570495605 8.779590606689453 
49 1 3.619715690612793 11.491903305053711 -5.696320533752441 
50 1 -10.740348815917969 -5.657009601593018 2.172668457031250 
51 1 -6.080126285552979 10.811994552612305 5.138749599456787 
52 1 -11.036341667175293 -0.568646907806396 -0.922052681446075 
53 1 -2.023351192474365 0.973317205905914 1.018019318580627 
54 1 -1.496738076210022 -0.700439929962158 -2.158515453338623 
55 1 3.672480106353760 -4.082535266876221 9.907833099365234 
56 1 2.993686199188232 8.238332748413086 -4.114732742309570 
57 1 6.787756919860840 -5.755506038665771 -10.507204055786133 
58 1 3.779756546020508 5.473012447357178 -1.793462157249451 
59 1 3.866739749908447 9.363995552062988 -8.921544075012207 
60 1 0.433965593576431 5.305532932281494 3.053094387054443 
61 1 2.507643699645996 0.907372891902924 -7.231159687042236 
62 1 8.559361457824707 7.595509052276611 -6.036990165710449 
63 1 -1.798731923103333 -5.584228038787842 -0.318792402744293 
64 1 -5.056522846221924 -6.667741775512695 0.753709793090820 
65 1 8.856318473815918 6.129792690277100 -2.766391277313232 
66 1 0.165084615349770 -3.386853218078613 -8.878493309020996 
67 1 5.420972347259521 -3.786623001098633 1.832130312919617 
68 1 9.647416114807129 7.366767406463623 10.872247695922852 
69 1 -11.523408889770508 -9.667041778564453 -2.354095935821533 
70 1 -6.829100131988525 -2.951975107192993 -6.550503730773926 
71 1 -1.017401099205017 9.633711814880371 -6.121121883392334 
72 1 3.794443368911743 1.162758111953735 2.562092781066895 
73 1 -7.492507934570312 0.428400367498398 -5.026424407958984 
74 1 -3.384058952331543 4.555382728576660 -10.324768066406250 
75 1 -10.574206352233887 -6.019609928131104 10.859600067138672 
76 1 3.710023403167725 10.499505996704102 3.781116962432861 
77 1 3.320986032485962 10.109959602355957 -1.412753582000732 
78 1 10.765974998474121 11.217773437500000 0.216479301452637 
79 1 3.977379083633423 -9.776025772094727 -2.838870525360107 
80 1 10.110729217529297 0.636832296848297 -9.682827949523926 
81 1 -9.834409713745117 0.784065783023834 8.417800903320312 
82 1 1.771206617355347 -6.464180946350098 0.054860446602106 
83 1 -2.581318140029907 9.484000205993652 0.268249690532684 
84 1 1.867417097091675 -0.543992042541504 -10.407485961914062 
85 1 -7.801037788391113 -3.084558486938477 10.913788795471191 
86 1 -8.480695724487305 9.482583999633789 1.815606355667114 
87 1 7.636656761169434 8.219095230102539 8.081244468688965 
88 1 -2.781230926513672 1.831731200218201 -6.506536960601807 
89 1 -2.941746234893799 5.406504631042480 4.819123744964600 
90 1 9.607249259948730 -4.263889789581299 -8.532494544982910 
91 1 3.322507858276367 11.476754188537598 6.978664398193359 
92 1 3.640493154525757 1.591421246528625 -3.083714008331299 
93 1 -7.142756462097168 8.082857131958008 10.060567855834961 
94 1 -8.737858772277832 7.721699237823486 5.130180835723877 
95 1 -8.606046676635742 10.278869628906250 -10.461320877075195 
96 1 5.878329277038574 4.739792346954346 -9.636291503906250 
97 1 -2.074122905731201 -9.426349639892578 9.810073852539062 
98 1 10.529097557067871 -7.404736518859863 -0.045505184680223 
99 1 0.153507947921753 -6.925356388092041 9.868846893310547 
100 1 -7.113505840301514 8.095567703247070 -2.050889492034912 
101 1 4.072535991668701 -1.059891700744629 5.666152477264404 
102 1 6.751340389251709 1.980040311813354 11.166213989257812 
103 1 0.507332086563110 -9.888375282287598 7.269899845123291 
104 1 -10.208570480346680 0.917252600193024 -11.345620155334473 
105 1 7.291586399078369 11.147891044616699 -5.590155601501465 
106 1 -9.661700248718262 -1.837135672569275 -4.241066455841064 
107 1 -5.215372085571289 -4.841716766357422 10.077489852905273 
108 1 -1.616671919822693 6.262694835662842 -4.356844902038574 
109 1 -10.476931571960449 8.153440475463867 -8.020689010620117 
110 1 -1.124918699264526 6.377351760864258 10.812399864196777 
111 1 -1.675429701805115 7.777512550354004 -9.306073188781738 
112 1 7.574293613433838 -7.550086498260498 3.951377868652344 
113 1 11.168097496032715 0.606900215148926 -4.750183105468750 
114 1 11.333932876586914 8.941772460937500 -4.411221504211426 
115 1 6.752509117126465 3.563491821289062 -3.061454057693481 
116 1 -7.937502384185791 -7.654911994934082 4.173583030700684 
117 1 -2.266762971878052 -3.782503604888916 7.619976997375488 
118 1 -3.271236181259155 9.049222946166992 6.277215003967285 
119 1 3.480189800262451 -6.959066867828369 -11.631410598754883 
120 1 11.161908149719238 9.639962196350098 8.669656753540039 
121 1 9.864542007446289 4.141382217407227 -5.684310913085938 
122 1 -6.599452018737793 11.283633232116699 -3.966591596603394 
123 1 11.548660278320312 4.006533145904541 8.989061355590820 
124 1 7.532369136810303 -11.460195541381836 8.655098915100098 
125 1 -7.069246292114258 0.609104990959167 11.012423515319824 
126 1 -9.817407608032227 1.431286811828613 3.008800983428955 
127 1 -10.711101531982422 2.752818107604980 -7.676090717315674 
128 1 -3.015039205551147 0.006632505916059 7.387078285217285 
129 1 2.693108797073364 -6.267454147338867 7.060832977294922 
130 1 -3.860894680023193 -4.285359382629395 -7.829965591430664 
131 1 -3.652168035507202 6.345470905303955 -1.452192306518555 
132 1 4.868127346038818 -7.765609741210938 1.354735016822815 
133 1 -5.406425952911377 7.517851352691650 -9.704273223876953 
134 1 -7.931323051452637 0.390050619840622 -8.571101188659668 
135 1 7.294444561004639 9.569492340087891 -8.931271553039551 
136 1 -8.301257133483887 -8.817309379577637 8.874570846557617 
137 1 -1.570252537727356 -4.007874011993408 -3.709331035614014 
138 1 -7.245028495788574 -0.826337397098541 1.493877053260803 
139 1 -5.145723819732666 -10.830339431762695 8.170083045959473 
140 1 -4.368951320648193 3.741963148117065 -3.759005784988403 
141 1 8.488653182983398 -9.056056022644043 -10.598736763000488 
142 1 1.564074754714966 8.357295036315918 1.411295175552368 
143 1 0.301157504320145 1.722673416137695 3.887397766113281 
144 1 8.729798316955566 10.996983528137207 -2.381650924682617 
145 1 7.305287361145020 -9.198528289794922 -0.829581558704376 
146 1 -11.450513839721680 -2.599561452865601 -11.100423812866211 
147 1 -1.906223297119141 1.195099472999573 10.655386924743652 
148 1 5.730388164520264 0.920543909072876 -0.540175795555115 
149 1 -4.868510723114014 -4.905925273895264 -2.498981475830078 
150 1 6.498600006103516 -2.444760322570801 -1.476477742195129 
151 1 9.565048217773438 10.890116691589355 -11.463751792907715 
152 1 0.952238082885742 -3.012797594070435 -1.057680368423462 
153 1 -1.184821724891663 -2.753191709518433 1.812300920486450 
154 1 5.160389900207520 6.966439247131348 -6.753405094146729 
155 1 9.362453460693359 -1.685901165008545 0.777604341506958 
156 1 -6.453335762023926 2.869199037551880 1.687379240989685 
157 1 5.886085033416748 1.807557344436646 7.549187183380127 
158 1 9.927493095397949 -0.153352737426758 10.057157516479492 
159 1 -7.675138950347900 6.016756057739258 2.063671112060547 
160 1 -3.490483999252319 4.377869129180908 9.164420127868652 
161 1 -6.683349609375000 0.606670737266541 4.853938102722168 
162 1 -3.564744472503662 9.274458885192871 9.834183692932129 
163 1 11.543523788452148 -7.292998313903809 -9.250742912292480 
164 1 -2.117595672607422 -4.869434356689453 -11.206819534301758 
165 1 7.693740844726562 4.077222347259521 0.295043706893921 
166 1 -7.599864482879639 10.728301048278809 -7.067657947540283 
167 1 -5.622349262237549 -8.512387275695801 -3.140778779983521 
168 1 8.086121559143066 -2.373219490051270 -10.325029373168945 
169 1 1.188545107841492 -8.901781082153320 -6.841244697570801 
170 1 -0.253520995378494 9.755382537841797 -2.523316144943237 
171 1 6.943331241607666 -5.804466247558594 8.998879432678223 
172 1 -8.605103492736816 7.419919013977051 -5.542908191680908 
173 1 3.394797563552856 -2.292105436325073 -3.311787128448486 
174 1 3.043974637985229 -5.768077373504639 3.644700050354004 
175 1 -11.281073570251465 -9.466665267944336 6.969977855682373 
176 1 -4.948670864105225 6.320940017700195 -6.214365959167480 
177 1 8.983337402343750 -4.947606563568115 1.785145878791809 
178 1 4.940420627593994 3.944251537322998 4.689801216125488 
179 1 6.107381820678711 -10.138796806335449 -7.893085956573486 
180 1 -10.994858741760254 4.601593494415283 -11.074038505554199 
181 1 -10.940750122070312 -1.841582536697388 -7.829622745513916 
182 1 2.347773075103760 -9.975787162780762 0.314125090837479 
183 1 3.992842197418213 7.977611541748047 8.111950874328613 
184 1 -3.772097587585449 -8.321766853332520 -10.348698616027832 
185 1 -7.280478477478027 -7.027540206909180 -11.059115409851074 
186 1 0.320103555917740 1.617189645767212 -4.366378307342529 
187 1 -5.264018535614014 -1.874606609344482 -10.084093093872070 
188 1 9.374420166015625 8.233461380004883 0.264466047286987 
189 1 9.552859306335449 6.212860107421875 -8.820944786071777 
190 1 2.514821529388428 -10.515115737915039 10.204234123229980 
191 1 -6.526916980743408 4.431101799011230 11.222779273986816 
192 1 10.495738029479980 10.662751197814941 -7.248196601867676 
193 1 -0.467695593833923 11.495493888854980 2.018127679824829 
194 1 2.342550516128540 7.170490741729736 -10.888633728027344 
195 1 -8.996669769287109 -8.320325851440430 -4.436627864837646 
196 1 5.817737579345703 -4.546236038208008 5.528941154479980 
197 1 -8.465844154357910 -4.793657779693604 -3.504138708114624 
198 1 7.562538623809814 2.111691713333130 -7.994407653808594 
199 1 8.887041091918945 -1.213233709335327 -6.732489109039307 
200 1 10.795695304870605 -3.991467952728271 -1.339540600776672 
201 1 -9.587412834167480 -11.004604339599609 4.323189258575439 
202 1 3.806829214096069 -3.735035896301270 -9.762446403503418 
203 1 8.463411331176758 2.947201490402222 3.726092815399170 
204 1 -8.465076446533203 -7.026599407196045 -0.420231282711029 
205 1 -6.674003601074219 2.704000234603882 8.054715156555176 
206 1 10.356762886047363 5.724218845367432 2.142153501510620 
207 1 -6.461215972900391 -6.435652256011963 -7.491055488586426 
208 1 -2.173781156539917 -10.501118659973145 -8.087008476257324 
209 1 -0.004249410703778 -8.192062377929688 2.562638759613037 
210 1 5.402360439300537 -0.409780025482178 -5.907392501831055 
211 1 5.845865726470947 7.883325576782227 11.421714782714844 
212 1 -4.141489982604980 -1.044319629669189 3.232516050338745 
213 1 2.163425207138062 5.643810749053955 6.471610546112061 
214 1 6.185347080230713 -10.386503219604492 5.490844726562500 
215 1 -1.550100207328796 10.918060302734375 -11.093168258666992 
216 1 6.707590103149414 9.138732910156250 2.017130374908447 
217 1 -2.247934341430664 -0.989919483661652 -7.952877044677734 
218 1 4.982223033905029 3.282737970352173 -6.156045436859131 
219 1 7.087390422821045 -6.152273178100586 -6.631508350372314 
220 1 -6.470846652984619 -1.216076254844666 7.906358718872070 
221 1 -1.071010708808899 8.166024208068848 3.481059312820435 
222 1 -1.958735466003418 -7.428887367248535 6.696813106536865 
223 2 -5.097275257110596 -1.468900442123413 1.424073457717896 
224 2 -9.157757759094238 8.442954063415527 -1.430259227752686 
225 2 10.310305595397949 9.556033134460449 4.691104412078857 
226 2 6.443175315856934 2.711649417877197 -0.366744935512543 
227 2 -4.366642951965332 -8.352536201477051 1.128222703933716 
228 2 9.185265541076660 -2.754360437393188 -5.442876815795898 
229 2 9.194952964782715 -8.803400993347168 -5.218196868896484 
230 2 -8.220498085021973 7.673879146575928 1.048881530761719 
231 2 -6.130462169647217 9.543927192687988 -3.195277929306030 
232 2 10.999895095825195 11.012578010559082 10.207736968994141 
233 2 -5.895739078521729 2.780824184417725 -0.562679529190063 
234 2 6.663882732391357 -10.747183799743652 3.694330453872681 
235 2 7.274208545684814 -4.355472087860107 -2.232799768447876 
236 2 10.675672531127930 -5.924587726593018 -1.336243033409119 
237 2 9.134903907775879 10.138414382934570 -8.514507293701172 
238 2 -4.948563098907471 -10.269405364990234 -10.938470840454102 
239 2 10.967224121093750 -3.579027652740479 -7.336972713470459 
240 2 -3.457170724868774 7.987059593200684 -9.883859634399414 
241 2 7.391633510589600 7.741637229919434 10.145082473754883 
242 2 6.105002880096436 3.544180393218994 -7.938032150268555 
243 2 -9.500139236450195 -11.282316207885742 -9.661628723144531 
244 2 -2.896018505096436 8.672087669372559 4.264400005340576 
245 2 -1.099078178405762 9.438029289245605 -10.001930236816406 
246 2 4.420481681823730 -10.536923408508301 -6.874496459960938 
247 2 6.257643699645996 -5.923563957214355 -8.538313865661621 
248 2 9.322976112365723 10.030090332031250 -0.671453773975372 
249 2 -6.299751758575439 -9.037188529968262 8.144751548767090 
250 2 -6.895641803741455 -10.875321388244629 -7.998628616333008 
251 2 -3.982142448425293 10.241784095764160 -1.087079048156738 
252 2 -11.340177536010742 -10.050496101379395 11.458606719970703 
253 2 1.625543355941772 4.102895259857178 7.735646724700928 
254 2 -9.231080055236816 1.762399792671204 -8.367379188537598 
255 2 -11.483877182006836 7.443964958190918 -3.311236619949341 
256 2 -6.935125827789307 10.610510826110840 1.882213950157166 
257 2 10.861093521118164 0.685007631778717 -0.613628804683685 
258 2 10.441174507141113 2.625730037689209 -4.415644645690918 
259 2 11.543490409851074 8.440231323242188 7.277707576751709 
260 2 11.196766853332520 10.869271278381348 -10.387013435363770 
261 2 4.564811229705811 -3.489378690719604 -7.977530956268311 
262 2 4.605535507202148 5.626918792724609 3.503864765167236 
263 2 -0.443314582109451 -8.649132728576660 -2.284845113754272 
264 2 -3.874084949493408 -5.189965248107910 11.410263061523438 
265 2 -3.735408782958984 0.873027980327606 0.044194810092449 
266 2 -3.739540338516235 -3.806731224060059 6.517566680908203 
267 2 -2.443049907684326 -10.567307472229004 -2.851869821548462 
268 2 -4.360462665557861 8.124960899353027 -5.181740760803223 
269 2 9.409018516540527 7.326057434082031 -1.398606896400452 
270 2 -9.745113372802734 10.663101196289062 11.345732688903809 
271 2 -7.807878971099854 -8.909034729003906 -10.282384872436523 
272 2 3.255097150802612 -4.536722660064697 -11.521673202514648 
273 2 -8.734718322753906 -5.969895362854004 -1.969898104667664 
274 2 10.177659034729004 -3.173275470733643 -10.156989097595215 
275 2 -9.024003982543945 -0.147737219929695 2.051558732986450 
276 2 5.499725818634033 -0.985024571418762 -0.694841504096985 
277 2 7.832382202148438 4.621589183807373 -1.655454993247986 
278 2 -3.338661909103394 -0.088025361299515 -6.203931808471680 
279 2 7.324710369110107 8.407810211181641 0.051076669245958 
280 2 -4.753951072692871 -11.037238121032715 1.310094594955444 
281 2 2.516989231109619 -9.679631233215332 -1.532074451446533 
282 2 -10.283434867858887 -3.755195379257202 -3.860900163650513 
283 2 -9.734764099121094 -8.335192680358887 7.527891159057617 
284 2 -8.429912567138672 1.188468933105469 4.309963226318359 
285 2 9.041750907897949 2.294212341308594 -9.767641067504883 
286 2 7.736349582672119 -2.567626237869263 11.167034149169922 
287 2 -2.288486480712891 -1.688528060913086 3.487132549285889 
288 2 9.357642173767090 2.818510770797729 -0.270829021930695 
289 2 -6.749390602111816 6.404077053070068 11.052605628967285 
290 2 -8.526338577270508 9.220269203186035 6.453496456146240 
291 2 11.210905075073242 7.199579238891602 -8.557042121887207 
292 2 2.037339925765991 6.146680355072021 -1.310725092887878 
293 2 -7.984077453613281 -3.355799198150635 -4.912748813629150 
294 2 -3.219602346420288 0.709809899330139 2.621042966842651 
295 2 -10.416357040405273 -6.076907634735107 -8.505093574523926 
296 2 -4.489832401275635 6.360474586486816 5.451267719268799 
297 2 3.469370126724243 -5.740179538726807 -9.226775169372559 
298 2 -0.996496081352234 11.259119987487793 -7.509501457214355 
299 2 -8.762744903564453 -10.221591949462891 -4.215521335601807 
300 2 -2.244432449340820 7.347655773162842 6.234688282012939 
301 2 1.404375553131104 -11.014796257019043 -6.341825485229492 
302 2 -8.262970924377441 1.847393393516541 -3.807211875915527 
303 2 -7.331471443176270 -6.027687549591064 -9.332706451416016 
304 2 -6.741451740264893 -3.738678932189941 9.477197647094727 
305 2 -1.834608078002930 0.992229461669922 -8.201712608337402 
306 2 -2.043664932250977 -9.706150054931641 -0.061480160802603 
307 2 -2.597970724105835 3.844451189041138 3.517725706100464 
308 2 2.695559263229370 -0.367465734481812 1.599844098091125 
309 2 2.018207311630249 -3.761852741241455 -2.679844617843628 
310 2 -9.255598068237305 -3.965904235839844 7.081883907318115 
311 2 7.555926799774170 -11.518141746520996 6.393595218658447 
312 2 -5.075255393981934 -2.337459325790405 -5.987895011901855 
313 2 5.804879188537598 7.845197677612305 7.241901874542236 
314 2 1.392108798027039 -6.122742652893066 -4.344588279724121 
315 2 4.012178897857666 3.991083860397339 -9.784511566162109 
316 2 -0.060217998921871 8.903437614440918 4.912850379943848 
317 2 1.018871307373047 -11.115547180175781 1.095059871673584 
318 2 -8.053780555725098 -3.440155267715454 -7.894135475158691 
319 2 6.039983272552490 -10.765926361083984 9.769156455993652 
320 2 -11.120731353759766 -11.081170082092285 0.846725702285767 
321 2 -3.316784620285034 -4.735943317413330 -3.596983909606934 
322 2 1.676462531089783 7.398825645446777 -5.315272808074951 
323 2 -8.462524414062500 2.010967493057251 7.869974136352539 
324 2 10.193173408508301 -8.669661521911621 -9.379513740539551 
325 2 -4.826317787170410 -10.249739646911621 6.308033466339111 
326 2 11.316000938415527 -0.908911108970642 -9.325867652893066 
327 2 -10.689929962158203 -4.000638484954834 -0.935653984546661 
328 2 -2.069278478622437 3.007924318313599 0.463458955287933 
329 2 8.413884162902832 11.401210784912109 10.325103759765625 
330 2 7.130800247192383 10.032788276672363 8.445333480834961 
331 2 9.712305068969727 6.571004867553711 5.742967128753662 
332 2 -7.058794021606445 -3.883523464202881 4.288691997528076 
333 2 -2.359810829162598 -7.609080314636230 -6.843269348144531 
334 2 -6.428251266479492 1.694017887115479 -8.995432853698730 
335 2 3.044761419296265 6.128502368927002 -3.579301357269287 
336 2 5.902200222015381 -3.688803911209106 -0.096180818974972 
337 2 7.811779022216797 -10.981722831726074 -1.325855374336243 
338 2 -1.109974384307861 -5.850564002990723 10.713349342346191 
339 2 -9.602858543395996 0.761853456497192 -1.076372623443604 
340 2 -9.031777381896973 -6.281846046447754 -4.583335399627686 
341 2 7.251263618469238 9.807061195373535 -2.610767602920532 
342 2 7.940560817718506 3.582442998886108 10.654356956481934 
343 2 -11.237353324890137 5.231549263000488 5.313714027404785 
344 2 8.396840095520020 7.737704277038574 -8.125523567199707 
345 2 -4.974620342254639 4.732082843780518 -7.412812232971191 
346 2 -11.162702560424805 2.968825817108154 -1.216034889221191 
347 2 5.005476474761963 -2.781877040863037 5.411096572875977 
348 2 10.465349197387695 4.852173328399658 -2.434746265411377 
349 2 4.742171287536621 7.770598411560059 9.852368354797363 
350 2 9.533802986145020 -10.956556320190430 1.107252359390259 
351 2 -5.061838150024414 -7.495719909667969 -6.280786037445068 
352 2 4.910860061645508 3.008711814880371 11.066699028015137 
353 2 -5.922817230224609 -11.064528465270996 3.937941074371338 
354 2 1.184392094612122 -4.900506019592285 6.312840938568115 
355 2 3.614133834838867 -10.720605850219727 8.603096961975098 
356 2 2.442088603973389 -5.929822921752930 1.786047577857971 
357 2 3.658843278884888 -2.218569278717041 10.217616081237793 
358 2 2.018498659133911 -1.898303389549255 -4.562644481658936 
359 2 -4.262083053588867 -8.916737556457520 -1.885343074798584 
360 2 9.965094566345215 1.976800441741943 3.092069864273071 
361 2 -11.552358627319336 -5.971410751342773 7.020116806030273 
362 2 3.316527366638184 11.640686035156250 -0.055108107626438 
363 2 8.713927268981934 -2.391623497009277 -8.298086166381836 
364 2 -8.635121345520020 -3.690388679504395 -10.864160537719727 
365 2 -9.563444137573242 6.682312965393066 6.803566455841064 
366 2 -4.526567459106445 11.162239074707031 -3.987550973892212 
367 2 -7.674337387084961 4.435244560241699 -10.622787475585938 
368 2 -0.875401258468628 -5.463082790374756 -2.317420482635498 
369 2 0.304964303970337 -7.722224712371826 -9.577653884887695 
370 2 -2.277655839920044 8.771184921264648 -7.570475578308105 
371 2 -8.351146697998047 -5.985496520996094 -7.026330471038818 
372 2 -4.111502647399902 -7.541479110717773 3.823920488357544 
373 2 -2.539459943771362 -1.848987817764282 8.167095184326172 
374 2 11.246862411499023 5.226454734802246 -4.831918239593506 
375 2 -1.613885045051575 -3.225039958953857 10.886982917785645 
376 2 -0.193590417504311 -6.458927154541016 0.418019801378250 
377 2 4.588439464569092 -2.163430452346802 -5.484670639038086 
378 2 10.180058479309082 -3.793090820312500 -3.155149698257446 
379 2 6.883441925048828 -9.961544990539551 -11.184673309326172 
380 2 -11.517845153808594 -8.280237197875977 5.501502990722656 
381 2 -6.891615390777588 4.535531997680664 3.097570419311523 
382 2 10.508744239807129 9.739334106445312 1.556994318962097 
383 2 -5.638646125793457 -0.172737911343575 -1.643944025039673 
384 2 -0.419644743204117 -8.521872520446777 10.817430496215820 
385 2 -9.926353454589844 8.672171592712402 -9.866481781005859 
386 2 -7.328296661376953 4.384727954864502 -3.076458454132080 
387 2 -4.894175052642822 3.128321647644043 8.506532669067383 
388 2 7.099749565124512 6.947602272033691 -2.725310325622559 
389 2 -7.987445354461670 7.900310993194580 -3.798308134078979 
390 2 4.101173400878906 9.929243087768555 7.652387142181396 
391 2 -11.120337486267090 -0.604292392730713 9.034824371337891 
392 2 1.972169160842896 5.362275123596191 -6.890408515930176 
393 2 -7.419003486633301 -1.157018542289734 -6.332190990447998 
394 2 4.769195079803467 0.012017915025353 3.867289781570435 
395 2 -1.031011581420898 5.270308971405029 1.699635863304138 
396 2 10.914254188537598 -1.947868466377258 4.109783649444580 
397 2 -6.561069965362549 3.423352956771851 -5.608360767364502 
398 2 -0.968358576297760 -0.953859508037567 -6.546631813049316 
399 2 -3.640447378158569 -9.870959281921387 8.887516975402832 
400 2 -0.453179091215134 6.941610813140869 -7.969626426696777 
401 2 9.836812973022461 -4.559857845306396 3.693822145462036 
402 2 -10.981966972351074 -4.505821704864502 4.905702114105225 
403 2 -6.539637088775635 -5.037976741790771 -3.375115633010864 
404 2 3.633341550827026 -3.182639360427856 1.683612465858459 
405 2 -8.206229209899902 -4.957195758819580 0.512449443340302 
406 2 2.824697494506836 0.492384940385818 6.246264934539795 
407 2 5.706439018249512 -0.218471914529800 6.495337009429932 
408 2 -10.187383651733398 -6.604118824005127 0.530934870243073 
409 2 5.172839164733887 -5.839807987213135 1.130104422569275 
410 2 5.531824111938477 -4.174288749694824 -10.553054809570312 
411 2 0.889355421066284 -2.366317510604858 0.905384063720703 
412 2 -0.955179154872894 -9.962771415710449 2.381310939788818 
413 2 -4.942568778991699 7.591265678405762 -7.750969409942627 
414 2 -7.586433410644531 -1.496735692024231 -0.334080785512924 
415 2 3.903655052185059 -5.437795162200928 5.648921012878418 
416 2 9.561781883239746 -1.757898688316345 6.152939319610596 
417 2 8.348854064941406 -4.249230384826660 9.016774177551270 
418 2 -6.281853675842285 -10.843621253967285 -5.555933952331543 
419 2 -1.251836419105530 -0.745347559452057 10.484026908874512 
420 2 3.518841505050659 7.773799896240234 -7.586095809936523 
421 2 -10.557314872741699 0.698319852352142 6.627840995788574 
422 2 9.321760177612305 7.307204723358154 -4.287510871887207 
423 2 -2.065491437911987 4.434956550598145 6.196459770202637 
424 2 4.128405094146729 -9.684189796447754 1.282979488372803 
425 2 -0.136428356170654 -11.078629493713379 5.861703395843506 
426 2 -6.563946723937988 -0.589507341384888 3.303327560424805 
427 2 8.024971961975098 -2.084044218063354 -0.428191840648651 
428 2 -2.842768669128418 -1.650285720825195 -1.158620119094849 
429 2 3.917697191238403 2.850779294967651 -4.518472194671631 
430 2 1.828211665153503 -10.051076889038086 -8.585078239440918 
431 2 -5.280458927154541 8.540860176086426 9.932810783386230 
432 2 -11.094788551330566 -9.989522933959961 3.474487781524658 
433 2 -10.675190925598145 7.981750011444092 4.858583450317383 
434 2 6.123891830444336 -5.302287101745605 7.325753211975098 
435 2 -1.634872436523438 -6.363734722137451 5.040075778961182 
436 2 9.936481475830078 0.441725343465805 -2.983951807022095 
437 2 -11.073877334594727 -3.748159885406494 1.956573367118835 
438 2 -4.754158020019531 10.442684173583984 -8.464389801025391 
439 2 -3.376735687255859 -10.232227325439453 3.705086946487427 
440 2 -1.545606732368469 1.794358015060425 4.717250823974609 
441 2 -6.884452342987061 -10.901498794555664 -0.100031763315201 
442 2 1.623105883598328 8.473313331604004 11.312767982482910 
443 2 -0.562936186790466 -9.439048767089844 -7.609257221221924 
444 2 -6.892573833465576 4.677258014678955 0.679253041744232 
445 2 -7.213523864746094 1.292845845222473 -6.731256484985352 
446 2 7.401333808898926 1.395266652107239 3.963660955429077 
447 2 -6.593662738800049 0.766907632350922 9.038644790649414 
448 2 0.212511643767357 3.622601032257080 3.903905630111694 
449 2 9.411084175109863 5.881622314453125 -6.802842140197754 
450 2 11.582630157470703 -6.555401325225830 3.606248140335083 
451 2 0.729245126247406 1.993272781372070 6.026604175567627 
452 2 2.773057460784912 -1.597297549247742 4.348501682281494 
453 2 2.571473121643066 -1.761869072914124 -1.425900936126709 
454 2 -4.582683086395264 3.275599718093872 1.823589801788330 
455 2 10.165884971618652 0.715950191020966 5.835910797119141 
456 2 -6.420900821685791 11.112954139709473 7.085035324096680 
457 2 4.109736442565918 8.098435401916504 -10.554510116577148 
458 2 -3.145443439483643 0.357294887304306 9.361632347106934 
459 2 6.076968193054199 5.193043231964111 9.501186370849609 
460 2 -1.819157958030701 -5.625786304473877 7.545747756958008 
461 2 6.915609359741211 8.364649772644043 -10.359484672546387 
462 2 11.311162948608398 5.751814842224121 8.041001319885254 
463 2 -1.226462960243225 6.257883548736572 4.120408058166504 
464 2 0.467145681381226 -1.690458059310913 6.378472805023193 
465 2 5.493645191192627 2.004080057144165 -2.586473703384399 
466 2 9.772888183593750 -4.561599731445312 6.299941062927246 
467 2 -4.758221626281738 4.635951042175293 10.629612922668457 
468 2 9.596150398254395 -10.664872169494629 -10.708041191101074 
469 2 -8.786439895629883 -9.275125503540039 4.867224693298340 
470 2 -8.885100364685059 -8.951783180236816 0.063149541616440 
471 2 2.491123199462891 -7.334491729736328 5.345548152923584 
472 2 0.355807662010193 0.596201896667480 -10.261193275451660 
473 2 6.693068981170654 -7.428249359130859 -5.214299678802490 
474 2 -2.395604848861694 -6.757617473602295 -9.945464134216309 
475 2 -0.926102161407471 9.946989059448242 -0.695140182971954 