ITEM: TIMESTEP
0
ITEM: NUMBER OF ATOMS
1008
ITEM: BOX BOUNDS xy xz yz pp pp pp
0.0 23.3006801605 0.0
0.0 23.3006801605 0.0
0.0 23.3006801605 0.0
ITEM: ATOMS id type x y z
1 1 4.147430896759033 -7.070137023925781 -8.099470138549805 
2 1 0.106502287089825 6.244201183319092 -1.301035165786743 
3 1 -10.976212501525879 5.545046806335449 -3.268141269683838 
4 1 -1.345563769340515 3.167524337768555 -1.355735182762146 
5 1 5.938070774078369 11.645300865173340 -11.479344367980957 
6 1 0.051615681499243 -2.391932964324951 10.286100387573242 
7 1 8.064465522766113 0.151593580842018 -3.339019298553467 
8 1 -4.098371028900146 -1.177083134651184 -4.651571750640869 
9 1 -9.716168403625488 10.303226470947266 -1.595951080322266 
10 1 5.157976150512695 -0.248112559318542 -9.644062042236328 
11 1 9.583164215087891 2.120006322860718 7.031123638153076 
12 1 9.096064567565918 -2.831059694290161 4.488230228424072 
13 1 0.727329134941101 3.318229675292969 9.524483680725098 
14 1 -6.791970252990723 4.463184356689453 -1.277389645576477 
15 1 -5.337625026702881 -3.865581274032593 5.447291374206543 
16 1 2.938899755477905 -9.114622116088867 4.483347415924072 
17 1 -10.379225730895996 3.584004163742065 5.783308029174805 
18 1 -9.572970390319824 2.218682765960693 -2.323877811431885 
19 1 -0.855577647686005 -1.661406278610229 4.914126396179199 
20 1 -10.238204002380371 -2.567682027816772 8.276572227478027 
21 1 10.867053031921387 -5.662007808685303 5.214474678039551 
22 1 -0.011240336112678 -7.196169853210449 -3.439245939254761 
23 1 -5.786396980285645 -7.158025741577148 7.286508560180664 
24 1 7.848422527313232 4.699916362762451 9.041749954223633 
25 1 7.236752033233643 -2.579746723175049 9.313863754272461 
26 1 -5.716464519500732 6.588435173034668 6.961749553680420 
27 1 8.153231620788574 -10.816640853881836 2.396632194519043 
28 1 0.285434186458588 10.275442123413086 6.157755851745605 
29 1 -3.049654722213745 -11.011566162109375 -4.641123294830322 
30 1 -6.097638607025146 3.032151460647583 -7.430740833282471 
31 1 -1.378167152404785 5.170489788055420 -7.420401573181152 
32 1 11.617613792419434 6.781016349792480 6.331789493560791 
33 1 4.627160072326660 6.075017452239990 1.469503760337830 
34 1 2.092464685440063 3.451996326446533 0.112424939870834 
35 1 0.418605387210846 -1.561502337455750 -5.481883525848389 
36 1 -10.488008499145508 -11.341657638549805 10.227337837219238 
37 1 11.529618263244629 -0.597532927989960 5.519301891326904 
38 1 -4.707396507263184 1.427010893821716 -1.470055341720581 
39 1 4.425557136535645 -4.072542190551758 -6.123949527740479 
40 1 -7.218637943267822 -4.579561233520508 2.403132915496826 
41 1 -3.345093011856079 -6.901371479034424 -5.225127220153809 
42 1 3.148819208145142 -10.295552253723145 -9.888293266296387 
43 1 -8.464179039001465 5.390196800231934 -9.092417716979980 
44 1 -2.317965507507324 -8.996977806091309 -1.772349715232849 
45 1 -8.411438941955566 10.708674430847168 7.615392208099365 
46 1 0.843991100788116 9.330255508422852 9.737507820129395 
47 1 7.305641174316406 -9.045540809631348 -4.434175014495850 
48 1 4.973705291748047 -8.973456382751465 8.794190406799316 
49 1 3.545933246612549 11.536861419677734 -5.772626399993896 
50 1 -10.734283447265625 -5.664984226226807 2.170775175094604 
51 1 -6.057056903839111 10.853869438171387 5.147995948791504 
52 1 -11.035060882568359 -0.569026470184326 -0.914605975151062 
53 1 -2.023806571960449 0.974244773387909 1.023823857307434 
54 1 -1.497817039489746 -0.698828101158142 -2.146637201309204 
55 1 3.665776491165161 -4.096204757690430 9.916816711425781 
56 1 2.999948263168335 8.283390998840332 -4.123661518096924 
57 1 6.792392253875732 -5.754041194915771 -10.509069442749023 
58 1 3.785860300064087 5.481662273406982 -1.795616030693054 
59 1 3.954605817794800 9.323103904724121 -8.862835884094238 
60 1 0.435817897319794 5.303454399108887 3.053775787353516 
61 1 2.497535943984985 0.915807187557220 -7.226233005523682 
62 1 8.556042671203613 7.603638172149658 -6.024678707122803 
63 1 -1.794440865516663 -5.588950157165527 -0.303904473781586 
64 1 -5.051014900207520 -6.673125743865967 0.775736391544342 
65 1 8.857573509216309 6.126857757568359 -2.760593414306641 
66 1 0.176887109875679 -3.374034643173218 -8.851556777954102 
67 1 5.426152706146240 -3.786973953247070 1.839985132217407 
68 1 9.670670509338379 7.364902019500732 10.871940612792969 
69 1 -11.515350341796875 -9.673853874206543 -2.351501226425171 
70 1 -6.833459854125977 -2.945417881011963 -6.540458679199219 
71 1 -0.972021579742432 9.671959877014160 -6.106883525848389 
72 1 3.794308423995972 1.161987543106079 2.568165302276611 
73 1 -7.493519306182861 0.429003268480301 -5.017315864562988 
74 1 -3.397672891616821 4.553921222686768 -10.329939842224121 
75 1 -10.563704490661621 -6.021931171417236 10.862057685852051 
76 1 3.715804815292358 10.495204925537109 3.789586305618286 
77 1 3.339592695236206 10.106230735778809 -1.390419363975525 
78 1 10.769949913024902 11.211821556091309 0.212741166353226 
79 1 3.998069524765015 -9.789876937866211 -2.826407194137573 
80 1 10.112810134887695 0.633585929870605 -9.678536415100098 
81 1 -9.834136962890625 0.773797392845154 8.417370796203613 
82 1 1.779927611351013 -6.458733558654785 0.066315077245235 
83 1 -2.573121786117554 9.482069015502930 0.275313138961792 
84 1 1.863700389862061 -0.556557178497314 -10.406664848327637 
85 1 -7.784922599792480 -3.092613458633423 10.913558959960938 
86 1 -8.479014396667480 9.481637954711914 1.816207289695740 
87 1 7.641149520874023 8.215495109558105 8.080896377563477 
88 1 -2.780006647109985 1.835467457771301 -6.499173641204834 
89 1 -2.943139314651489 5.404692173004150 4.822650909423828 
90 1 9.607410430908203 -4.269893646240234 -8.527686119079590 
91 1 3.332356452941895 11.474437713623047 6.987609863281250 
92 1 3.641751289367676 1.592679381370544 -3.074640750885010 
93 1 -7.175280570983887 8.068984031677246 10.064419746398926 
94 1 -8.740522384643555 7.724637031555176 5.130426883697510 
95 1 -8.628958702087402 10.268910408020020 -10.457185745239258 
96 1 5.882349967956543 4.734378814697266 -9.635496139526367 
97 1 -2.134254932403564 -9.442755699157715 9.780388832092285 
98 1 10.540387153625488 -7.408138275146484 -0.048633281141520 
99 1 0.162457823753357 -7.073817729949951 9.922918319702148 
100 1 -7.100645542144775 8.096340179443359 -2.057013750076294 
101 1 4.068941593170166 -1.067302823066711 5.678537368774414 
102 1 6.753676414489746 1.974402904510498 11.169076919555664 
103 1 0.526022076606750 -9.894271850585938 7.280042648315430 
104 1 -10.206993103027344 0.908197462558746 -11.348031997680664 
105 1 7.259406566619873 11.158420562744141 -5.584221363067627 
106 1 -9.664065361022949 -1.838574409484863 -4.235299110412598 
107 1 -5.194478034973145 -4.876760482788086 10.087342262268066 
108 1 -1.606270790100098 6.278543949127197 -4.365575313568115 
109 1 -10.481786727905273 8.151608467102051 -8.005572319030762 
110 1 -1.140937089920044 6.362918853759766 10.797968864440918 
111 1 -1.701045632362366 7.774522304534912 -9.306096076965332 
112 1 7.581003665924072 -7.554106235504150 3.959342479705811 
113 1 11.165589332580566 0.604275941848755 -4.745498657226562 
114 1 11.338702201843262 8.945431709289551 -4.406102657318115 
115 1 6.755437850952148 3.561236619949341 -3.059273004531860 
116 1 -7.940546512603760 -7.654791355133057 4.168747425079346 
117 1 -2.269831895828247 -3.794944524765015 7.626772880554199 
118 1 -3.264553785324097 9.052233695983887 6.268343448638916 
119 1 3.503933668136597 -7.000991344451904 -11.636581420898438 
120 1 11.160281181335449 9.633730888366699 8.674701690673828 
121 1 9.862236976623535 4.140387535095215 -5.678978443145752 
122 1 -6.577309608459473 11.277813911437988 -3.983187913894653 
123 1 11.551239967346191 3.994920969009399 8.991084098815918 
124 1 7.533417224884033 -11.467173576354980 8.663137435913086 
125 1 -7.069462776184082 0.600969910621643 11.013088226318359 
126 1 -9.816497802734375 1.427954435348511 3.009709835052490 
127 1 -10.712918281555176 2.749204874038696 -7.668021678924561 
128 1 -3.013724803924561 -0.003356583183631 7.395176887512207 
129 1 2.683130025863647 -6.293283462524414 7.089559555053711 
130 1 -3.864808082580566 -4.276207447052002 -7.821049690246582 
131 1 -3.642235755920410 6.349397659301758 -1.452904582023621 
132 1 4.876066207885742 -7.762593746185303 1.367412924766541 
133 1 -5.409909725189209 7.524265289306641 -9.684721946716309 
134 1 -7.932293415069580 0.386272788047791 -8.562188148498535 
135 1 7.329022884368896 9.560070991516113 -8.922801971435547 
136 1 -8.303843498229980 -8.814362525939941 8.883154869079590 
137 1 -1.571483492851257 -4.010218620300293 -3.690679311752319 
138 1 -7.242799758911133 -0.824495255947113 1.494872212409973 
139 1 -5.172303676605225 -10.830482482910156 8.155484199523926 
140 1 -4.360928058624268 3.750970363616943 -3.755340099334717 
141 1 8.492939949035645 -9.058311462402344 -10.601987838745117 
142 1 1.569792509078979 8.354171752929688 1.418831348419189 
143 1 0.301442682743073 1.720518589019775 3.896810531616211 
144 1 8.730935096740723 10.999103546142578 -2.384268522262573 
145 1 7.312054634094238 -9.194524765014648 -0.826246261596680 
146 1 -11.450218200683594 -2.603464841842651 -11.096819877624512 
147 1 -1.913160085678101 1.178156375885010 10.656251907348633 
148 1 5.733994007110596 0.917029201984406 -0.534703731536865 
149 1 -4.873575210571289 -4.906640052795410 -2.475871801376343 
150 1 6.499234199523926 -2.449002504348755 -1.475771188735962 
151 1 9.566800117492676 10.887789726257324 -11.462759971618652 
152 1 0.960611820220947 -3.007458209991455 -1.052613854408264 
153 1 -1.184232950210571 -2.751840353012085 1.822567343711853 
154 1 5.165051460266113 6.943554401397705 -6.744024276733398 
155 1 9.361335754394531 -1.685818314552307 0.779768884181976 
156 1 -6.452033996582031 2.870481491088867 1.687648534774780 
157 1 5.879384517669678 1.793101787567139 7.553300380706787 
158 1 9.926280975341797 -0.161049559712410 10.058176040649414 
159 1 -7.675783634185791 6.017639160156250 2.068391323089600 
160 1 -3.501410961151123 4.370736122131348 9.168506622314453 
161 1 -6.680786132812500 0.605849802494049 4.852790832519531 
162 1 -3.611952781677246 9.236642837524414 9.801605224609375 
163 1 11.549266815185547 -7.294796943664551 -9.250908851623535 
164 1 -2.084830284118652 -4.910150527954102 -11.190705299377441 
165 1 7.695554256439209 4.074994087219238 0.298364758491516 
166 1 -7.581234931945801 10.732813835144043 -7.070983886718750 
167 1 -5.621479511260986 -8.526038169860840 -3.145811557769775 
168 1 8.088232994079590 -2.375723361968994 -10.323261260986328 
169 1 1.111989617347717 -8.935434341430664 -6.869040966033936 
170 1 -0.236073985695839 9.779035568237305 -2.513443946838379 
171 1 6.948295593261719 -5.808432102203369 8.997130393981934 
172 1 -8.595828056335449 7.421476840972900 -5.542757511138916 
173 1 3.395981311798096 -2.287862777709961 -3.309555292129517 
174 1 3.045737266540527 -5.760325908660889 3.656978607177734 
175 1 -11.277071952819824 -9.472879409790039 6.970230579376221 
176 1 -4.939401626586914 6.327312469482422 -6.210235118865967 
177 1 8.988124847412109 -4.954084873199463 1.786402225494385 
178 1 4.943585872650146 3.939042329788208 4.695950508117676 
179 1 6.112220764160156 -10.132400512695312 -7.900296688079834 
180 1 -10.994085311889648 4.590431213378906 -11.066184997558594 
181 1 -10.942189216613770 -1.847202539443970 -7.826089859008789 
182 1 2.362274169921875 -9.972838401794434 0.329120337963104 
183 1 3.992225408554077 7.971123695373535 8.128303527832031 
184 1 -3.741793870925903 -8.363593101501465 -10.391436576843262 
185 1 -7.266550064086914 -7.041225433349609 -11.035004615783691 
186 1 0.318409800529480 1.621506929397583 -4.355508804321289 
187 1 -5.260042667388916 -1.869866013526917 -10.079197883605957 
188 1 9.379111289978027 8.231555938720703 0.268419533967972 
189 1 9.554283142089844 6.207570075988770 -8.812980651855469 
190 1 2.523951053619385 -10.529219627380371 10.230590820312500 
191 1 -6.545387268066406 4.418159961700439 11.217334747314453 
192 1 10.496713638305664 10.670614242553711 -7.233669757843018 
193 1 -0.458952426910400 11.496766090393066 2.010510444641113 
194 1 2.370572328567505 7.155735015869141 -10.915858268737793 
195 1 -8.994523048400879 -8.318907737731934 -4.435027122497559 
196 1 5.813511371612549 -4.553883552551270 5.532360553741455 
197 1 -8.465229988098145 -4.791545867919922 -3.496950626373291 
198 1 7.562969684600830 2.102502346038818 -7.990056514739990 
199 1 8.884895324707031 -1.219849109649658 -6.728129863739014 
200 1 10.796137809753418 -3.990846633911133 -1.335209846496582 
201 1 -9.580338478088379 -11.008818626403809 4.321832656860352 
202 1 3.806408643722534 -3.750097513198853 -9.758274078369141 
203 1 8.465861320495605 2.945703983306885 3.729108572006226 
204 1 -8.456310272216797 -7.035940647125244 -0.419414579868317 
205 1 -6.680198669433594 2.698251962661743 8.051999092102051 
206 1 10.358867645263672 5.720712661743164 2.144575119018555 
207 1 -6.464348793029785 -6.429593563079834 -7.473066806793213 
208 1 -2.215842485427856 -10.502187728881836 -8.148087501525879 
209 1 0.004592322744429 -8.191078186035156 2.570534467697144 
210 1 5.395991325378418 -0.421700865030289 -5.905981063842773 
211 1 5.868868350982666 7.885391235351562 11.418972015380859 
212 1 -4.137994289398193 -1.048211932182312 3.234972953796387 
213 1 2.165791273117065 5.639057636260986 6.473653793334961 
214 1 6.188903331756592 -10.394571304321289 5.492467403411865 
215 1 -1.687942385673523 10.926071166992188 -11.201475143432617 
216 1 6.708360195159912 9.138216972351074 2.017830371856689 
217 1 -2.247424602508545 -0.980633616447449 -7.947235584259033 
218 1 4.983513355255127 3.267411231994629 -6.153313636779785 
219 1 7.068205833435059 -6.163450241088867 -6.665589809417725 
220 1 -6.470686912536621 -1.213177561759949 7.906459808349609 
221 1 -1.067824721336365 8.161237716674805 3.484110355377197 
222 1 -1.959979891777039 -7.442176342010498 6.710186481475830 
223 2 -5.097843647003174 -1.466049432754517 1.425573348999023 
224 2 -9.151107788085938 8.437198638916016 -1.435561656951904 
225 2 10.311491966247559 9.549700736999512 4.694484233856201 
226 2 6.445322990417480 2.708343267440796 -0.360995173454285 
227 2 -4.360510826110840 -8.364833831787109 1.120133280754089 
228 2 9.183605194091797 -2.760770559310913 -5.440634727478027 
229 2 9.198461532592773 -8.800920486450195 -5.217833518981934 
230 2 -8.218510627746582 7.671731948852539 1.049390077590942 
231 2 -6.104726314544678 9.553206443786621 -3.196691513061523 
232 2 10.998774528503418 11.007268905639648 10.210932731628418 
233 2 -5.892413139343262 2.784693717956543 -0.562676370143890 
234 2 6.673390865325928 -10.751799583435059 3.698019981384277 
235 2 7.269626617431641 -4.355496883392334 -2.232515811920166 
236 2 10.682305335998535 -5.925391674041748 -1.334797024726868 
237 2 9.152829170227051 10.136345863342285 -8.509439468383789 
238 2 -4.957087039947510 -10.295209884643555 -10.915670394897461 
239 2 10.971120834350586 -3.580904722213745 -7.336884498596191 
240 2 -3.450140953063965 8.049818038940430 -9.898394584655762 
241 2 7.386658668518066 7.734867572784424 10.139113426208496 
242 2 6.103057384490967 3.535497426986694 -7.940797805786133 
243 2 -9.507552146911621 -11.289886474609375 -9.658944129943848 
244 2 -2.893177270889282 8.679687500000000 4.263661861419678 
245 2 -0.945925354957581 9.490254402160645 -9.925517082214355 
246 2 4.378646850585938 -10.491162300109863 -6.948111057281494 
247 2 6.284053802490234 -5.903703689575195 -8.544857025146484 
248 2 9.326004981994629 10.028989791870117 -0.672591209411621 
249 2 -6.331082344055176 -9.041208267211914 8.139163970947266 
250 2 -6.873087406158447 -10.876296043395996 -8.015080451965332 
251 2 -3.969342708587646 10.239735603332520 -1.094416499137878 
252 2 -11.339534759521484 -10.051722526550293 11.459648132324219 
253 2 1.629321813583374 4.103520393371582 7.745548725128174 
254 2 -9.230896949768066 1.758283615112305 -8.356262207031250 
255 2 -11.477848052978516 7.443994045257568 -3.314157962799072 
256 2 -6.931772708892822 10.602810859680176 1.869818568229675 
257 2 10.862668037414551 0.688897609710693 -0.615040242671967 
258 2 10.438604354858398 2.624887704849243 -4.413225650787354 
259 2 11.543975830078125 8.429348945617676 7.287222862243652 
260 2 11.198565483093262 10.865527153015137 -10.385847091674805 
261 2 4.565972328186035 -3.486993312835693 -7.975408554077148 
262 2 4.607887744903564 5.625339508056641 3.511196851730347 
263 2 -0.436571449041367 -8.620512008666992 -2.232085466384888 
264 2 -3.838695287704468 -5.213837146759033 11.411736488342285 
265 2 -3.733639478683472 0.878152847290039 0.044721882790327 
266 2 -3.741948127746582 -3.788287878036499 6.523152351379395 
267 2 -2.397533178329468 -10.543231964111328 -2.899163484573364 
268 2 -4.335401535034180 8.137733459472656 -5.180969715118408 
269 2 9.414338111877441 7.323727130889893 -1.395638465881348 
270 2 -9.759037971496582 10.656841278076172 11.346204757690430 
271 2 -7.814202785491943 -8.919232368469238 -10.275262832641602 
272 2 3.240249395370483 -4.557181358337402 -11.514919281005859 
273 2 -8.723047256469727 -5.972681045532227 -1.963934540748596 
274 2 10.184027671813965 -3.175489664077759 -10.150289535522461 
275 2 -9.021491050720215 -0.146437674760818 2.052392721176147 
276 2 5.502267837524414 -0.987335324287415 -0.691458225250244 
277 2 7.832684993743896 4.620887756347656 -1.651294589042664 
278 2 -3.347222566604614 -0.078254684805870 -6.195111751556396 
279 2 7.334747314453125 8.401840209960938 0.053702827543020 
280 2 -4.752486228942871 -11.045495986938477 1.296763420104980 
281 2 2.537928581237793 -9.681119918823242 -1.510702967643738 
282 2 -10.284402847290039 -3.756737470626831 -3.853677034378052 
283 2 -9.730978012084961 -8.340616226196289 7.527107238769531 
284 2 -8.426496505737305 1.190265536308289 4.309381484985352 
285 2 9.040267944335938 2.290156841278076 -9.766273498535156 
286 2 7.741876125335693 -2.570902824401855 11.167613983154297 
287 2 -2.284700632095337 -1.683820962905884 3.499061107635498 
288 2 9.358507156372070 2.817625761032104 -0.268115699291229 
289 2 -6.790925025939941 6.379807472229004 11.042590141296387 
290 2 -8.560583114624023 9.220788002014160 6.454522609710693 
291 2 11.209512710571289 7.195441722869873 -8.545607566833496 
292 2 2.042209863662720 6.151963710784912 -1.314139962196350 
293 2 -7.990138053894043 -3.343896150588989 -4.903522968292236 
294 2 -3.221165180206299 0.711487650871277 2.623322010040283 
295 2 -10.410502433776855 -6.077359199523926 -8.507126808166504 
296 2 -4.490126609802246 6.359303951263428 5.460184097290039 
297 2 3.473366975784302 -5.730224609375000 -9.210062026977539 
298 2 -0.941632032394409 11.260198593139648 -7.686302185058594 
299 2 -8.757791519165039 -10.220077514648438 -4.207306385040283 
300 2 -2.241673231124878 7.345443248748779 6.228274822235107 
301 2 1.501885533332825 -10.836641311645508 -6.307932376861572 
302 2 -8.261571884155273 1.850467085838318 -3.802034854888916 
303 2 -7.336008548736572 -6.031620502471924 -9.319500923156738 
304 2 -6.725953578948975 -3.775052070617676 9.493426322937012 
305 2 -1.827108621597290 0.996336400508881 -8.191281318664551 
306 2 -2.055932521820068 -9.734788894653320 -0.078008279204369 
307 2 -2.601438999176025 3.846316337585449 3.519020318984985 
308 2 2.694803237915039 -0.365405708551407 1.606622695922852 
309 2 2.030545473098755 -3.753131151199341 -2.671878099441528 
310 2 -9.255460739135742 -3.968973159790039 7.082157135009766 
311 2 7.559831142425537 -11.523520469665527 6.394223690032959 
312 2 -5.077871322631836 -2.331062078475952 -5.981649875640869 
313 2 5.802585124969482 7.837677955627441 7.260962486267090 
314 2 1.397557497024536 -6.112120151519775 -4.319523334503174 
315 2 3.995756387710571 4.019037246704102 -9.779689788818359 
316 2 -0.054015781730413 8.897193908691406 4.914704799652100 
317 2 1.026035308837891 -11.112071037292480 1.095571756362915 
318 2 -8.053546905517578 -3.439550638198853 -7.886956691741943 
319 2 6.038686275482178 -10.763698577880859 9.768081665039062 
320 2 -11.114339828491211 -11.092196464538574 0.845061540603638 
321 2 -3.317785978317261 -4.758092403411865 -3.582005262374878 
322 2 1.692041873931885 7.403060913085938 -5.318004608154297 
323 2 -8.465118408203125 2.001533031463623 7.866407871246338 
324 2 10.200793266296387 -8.674078941345215 -9.382428169250488 
325 2 -4.924837589263916 -10.274213790893555 6.268476963043213 
326 2 11.321493148803711 -0.909738898277283 -9.325068473815918 
327 2 -10.688420295715332 -4.001055240631104 -0.931083261966705 
328 2 -2.064183950424194 3.010366678237915 0.471603631973267 
329 2 8.418322563171387 11.393802642822266 10.326726913452148 
330 2 7.127833366394043 10.028569221496582 8.444418907165527 
331 2 9.712780952453613 6.567138671875000 5.746091365814209 
332 2 -7.059038162231445 -3.886056900024414 4.293069839477539 
333 2 -2.393682479858398 -7.557797908782959 -6.774904251098633 
334 2 -6.429062843322754 1.687943100929260 -8.983741760253906 
335 2 3.057189941406250 6.133201122283936 -3.580796003341675 
336 2 5.907221794128418 -3.687831640243530 -0.088217586278915 
337 2 7.824665069580078 -10.976603507995605 -1.324722766876221 
338 2 -1.057661414146423 -5.943308353424072 10.784667968750000 
339 2 -9.602941513061523 0.762892305850983 -1.073091268539429 
340 2 -9.030669212341309 -6.281281948089600 -4.574403285980225 
341 2 7.251224040985107 9.808824539184570 -2.608459711074829 
342 2 7.942342758178711 3.579992055892944 10.659078598022461 
343 2 -11.243457794189453 5.221361637115479 5.316193103790283 
344 2 8.402006149291992 7.743551254272461 -8.118491172790527 
345 2 -4.970011234283447 4.740538597106934 -7.414165496826172 
346 2 -11.160678863525391 2.971206903457642 -1.212888836860657 
347 2 4.994645595550537 -2.792031764984131 5.428542137145996 
348 2 10.466847419738770 4.852699279785156 -2.433153867721558 
349 2 4.726503372192383 7.770693778991699 9.882510185241699 
350 2 9.543936729431152 -10.961409568786621 1.110840439796448 
351 2 -5.071318626403809 -7.479427814483643 -6.266842365264893 
352 2 4.909019470214844 3.011795759201050 11.073102951049805 
353 2 -5.915225028991699 -11.064887046813965 3.901185989379883 
354 2 1.176702260971069 -4.931146144866943 6.335061073303223 
355 2 3.606168508529663 -10.736036300659180 8.624073028564453 
356 2 2.449216842651367 -5.915956020355225 1.796968221664429 
357 2 3.668731689453125 -2.232259273529053 10.230481147766113 
358 2 2.006654739379883 -1.885044932365417 -4.539888381958008 
359 2 -4.255729198455811 -8.940579414367676 -1.903406858444214 
360 2 9.966870307922363 1.974240899085999 3.094875097274780 
361 2 -11.552364349365234 -5.975078582763672 7.019551277160645 
362 2 3.329722166061401 11.636084556579590 -0.023175340145826 
363 2 8.712215423583984 -2.397693634033203 -8.293976783752441 
364 2 -8.622595787048340 -3.699512004852295 -10.866230964660645 
365 2 -9.566253662109375 6.670003890991211 6.797706127166748 
366 2 -4.491812229156494 11.163626670837402 -4.015874862670898 
367 2 -7.667966365814209 4.422892570495605 -10.608439445495605 
368 2 -0.876396358013153 -5.462406635284424 -2.287140130996704 
369 2 0.255418837070465 -7.509972572326660 -9.564225196838379 
370 2 -2.261153936386108 8.785794258117676 -7.599078178405762 
371 2 -8.351991653442383 -5.989964008331299 -7.015107631683350 
372 2 -4.126099109649658 -7.535470485687256 3.785560131072998 
373 2 -2.536412000656128 -1.858421444892883 8.178370475769043 
374 2 11.247516632080078 5.226439952850342 -4.829894065856934 
375 2 -1.607229113578796 -3.274463415145874 10.882016181945801 
376 2 -0.186476722359657 -6.460259914398193 0.434184491634369 
377 2 4.575111389160156 -2.172223567962646 -5.475043296813965 
378 2 10.183885574340820 -3.786734342575073 -3.148522377014160 
379 2 6.893657684326172 -9.969670295715332 -11.189169883728027 
380 2 -11.515114784240723 -8.287821769714355 5.501772880554199 
381 2 -6.890966415405273 4.534564971923828 3.099243879318237 
382 2 10.509910583496094 9.731800079345703 1.554045438766479 
383 2 -5.641992568969727 -0.166737228631973 -1.641359448432922 
384 2 -0.447810828685760 -8.692959785461426 10.921907424926758 
385 2 -9.937413215637207 8.663315773010254 -9.855546951293945 
386 2 -7.324465274810791 4.388170242309570 -3.073673963546753 
387 2 -4.903831958770752 3.129515647888184 8.508467674255371 
388 2 7.101934432983398 6.947793960571289 -2.723166942596436 
389 2 -7.970401763916016 7.907578468322754 -3.802934169769287 
390 2 4.093155384063721 9.918936729431152 7.663674354553223 
391 2 -11.119846343994141 -0.611789941787720 9.038535118103027 
392 2 1.983125686645508 5.344550132751465 -6.886468410491943 
393 2 -7.418692111968994 -1.147197484970093 -6.334417343139648 
394 2 4.769626140594482 0.011151673272252 3.874071121215820 
395 2 -1.030920386314392 5.272802352905273 1.702537655830383 
396 2 10.913911819458008 -1.949944496154785 4.111778736114502 
397 2 -6.553610801696777 3.441121578216553 -5.600631713867188 
398 2 -0.986947834491730 -0.950612902641296 -6.521825313568115 
399 2 -3.667622566223145 -9.819917678833008 8.765071868896484 
400 2 -0.456310361623764 6.930922031402588 -7.997652530670166 
401 2 9.833376884460449 -4.559641361236572 3.694259405136108 
402 2 -10.984361648559570 -4.503340721130371 4.909988880157471 
403 2 -6.538030147552490 -5.028209686279297 -3.366348743438721 
404 2 3.636689424514771 -3.182862281799316 1.695317029953003 
405 2 -8.204916000366211 -4.959253787994385 0.521166980266571 
406 2 2.822093486785889 0.486649602651596 6.256206512451172 
407 2 5.703928947448730 -0.224019616842270 6.505511283874512 
408 2 -10.183747291564941 -6.611335277557373 0.525098621845245 
409 2 5.182037353515625 -5.837395191192627 1.146828770637512 
410 2 5.529531478881836 -4.172192096710205 -10.563733100891113 
411 2 0.892098903656006 -2.363225460052490 0.908751606941223 
412 2 -0.955405473709106 -9.959067344665527 2.369180679321289 
413 2 -4.917125225067139 7.593336105346680 -7.748608589172363 
414 2 -7.588347911834717 -1.494468808174133 -0.330141127109528 
415 2 3.889719247817993 -5.462136268615723 5.645212173461914 
416 2 9.561865806579590 -1.763187885284424 6.155377864837646 
417 2 8.351403236389160 -4.252067565917969 9.015805244445801 
418 2 -6.277903556823730 -10.838641166687012 -5.570507049560547 
419 2 -1.272934556007385 -0.771616756916046 10.501582145690918 
420 2 3.511173486709595 7.727881908416748 -7.638609886169434 
421 2 -10.559526443481445 0.693516373634338 6.628142356872559 
422 2 9.321363449096680 7.306143760681152 -4.280911922454834 
423 2 -2.066249608993530 4.431777477264404 6.199835300445557 
424 2 4.138994216918945 -9.678275108337402 1.302759289741516 
425 2 -0.123341515660286 -11.078185081481934 5.861054897308350 
426 2 -6.563959598541260 -0.587815403938293 3.304015159606934 
427 2 8.028183937072754 -2.086251735687256 -0.430232375860214 
428 2 -2.843296051025391 -1.652645349502563 -1.150400638580322 
429 2 3.916280031204224 2.841362714767456 -4.518496990203857 
430 2 1.596201658248901 -9.835440635681152 -8.784662246704102 
431 2 -5.317167282104492 8.505496978759766 9.914690017700195 
432 2 -11.089748382568359 -9.994292259216309 3.472815513610840 
433 2 -10.679438591003418 7.974975585937500 4.858982086181641 
434 2 6.122466564178467 -5.310238361358643 7.325959205627441 
435 2 -1.631623268127441 -6.373123645782471 5.050810337066650 
436 2 9.934683799743652 0.436949729919434 -2.983478307723999 
437 2 -11.070416450500488 -3.753876686096191 1.958625555038452 
438 2 -4.788549900054932 10.404850959777832 -8.474488258361816 
439 2 -3.370332717895508 -10.234662055969238 3.702894926071167 
440 2 -1.548183202743530 1.797361612319946 4.723503589630127 
441 2 -6.880397796630859 -10.910451889038086 -0.113435842096806 
442 2 1.600810289382935 8.481562614440918 11.349864006042480 
443 2 -0.684970676898956 -9.352910041809082 -7.668798446655273 
444 2 -6.890623092651367 4.681777477264404 0.681090593338013 
445 2 -7.209153652191162 1.305098414421082 -6.714595317840576 
446 2 7.402046203613281 1.395859599113464 3.965863466262817 
447 2 -6.592764377593994 0.762095749378204 9.037281036376953 
448 2 0.212675929069519 3.619796752929688 3.899743080139160 
449 2 9.405320167541504 5.882246494293213 -6.796663761138916 
450 2 11.583778381347656 -6.555034160614014 3.608991622924805 
451 2 0.732183992862701 2.004831790924072 6.033340930938721 
452 2 2.774276018142700 -1.597256779670715 4.355354785919189 
453 2 2.573527097702026 -1.752614378929138 -1.416842579841614 
454 2 -4.582908630371094 3.283028125762939 1.821268916130066 
455 2 10.163607597351074 0.710847139358521 5.838830947875977 
456 2 -6.431355476379395 11.087820053100586 7.098605632781982 
457 2 4.076705455780029 8.093456268310547 -10.517597198486328 
458 2 -3.149906396865845 0.347165673971176 9.366535186767578 
459 2 6.078054428100586 5.189071178436279 9.506693840026855 
460 2 -1.860156059265137 -5.646018505096436 7.554978847503662 
461 2 6.908142566680908 8.363345146179199 -10.348192214965820 
462 2 11.313522338867188 5.744947433471680 8.047451972961426 
463 2 -1.225110769271851 6.254120349884033 4.122651576995850 
464 2 0.470025897026062 -1.706107258796692 6.389117717742920 
465 2 5.495048999786377 2.005964040756226 -2.581930160522461 
466 2 9.771344184875488 -4.564733982086182 6.302712917327881 
467 2 -4.769591331481934 4.628450393676758 10.639140129089355 
468 2 9.599416732788086 -10.668744087219238 -10.706433296203613 
469 2 -8.784885406494141 -9.276579856872559 4.862360954284668 
470 2 -8.876399993896484 -8.961802482604980 0.061973743140697 
471 2 2.477997541427612 -7.373566150665283 5.392107009887695 
472 2 0.359221458435059 0.599687814712524 -10.262196540832520 
473 2 6.697315692901611 -7.416683673858643 -5.222548961639404 
474 2 -2.441664218902588 -6.825654983520508 -9.896971702575684 
475 2 -0.922355413436890 9.958738327026367 -0.690257847309113 