ITEM: TIMESTEP
0
ITEM: NUMBER OF ATOMS
1008
ITEM: BOX BOUNDS xy xz yz pp pp pp
0.0 23.3006801605 0.0
0.0 23.3006801605 0.0
0.0 23.3006801605 0.0
ITEM: ATOMS id type x y z
1 1 4.147990703582764 -7.072821140289307 -8.104295730590820 
2 1 0.107897229492664 6.247305870056152 -1.296669721603394 
3 1 -10.972288131713867 5.538662910461426 -3.271222829818726 
4 1 -1.350360155105591 3.179895162582397 -1.384219169616699 
5 1 5.937427043914795 11.640086174011230 -11.482229232788086 
6 1 0.052410610020161 -2.380651235580444 10.274432182312012 
7 1 8.061509132385254 0.148510813713074 -3.338840961456299 
8 1 -4.111162185668945 -1.176705121994019 -4.657062530517578 
9 1 -9.715576171875000 10.297462463378906 -1.599705815315247 
10 1 5.159015178680420 -0.252392411231995 -9.652112960815430 
11 1 9.601343154907227 2.112919569015503 7.020862579345703 
12 1 9.092026710510254 -2.828661918640137 4.480034351348877 
13 1 0.743155598640442 3.318780899047852 9.509565353393555 
14 1 -6.769508838653564 4.455068588256836 -1.291070461273193 
15 1 -5.343333721160889 -3.871028423309326 5.456078052520752 
16 1 2.941172599792480 -9.114645957946777 4.483107566833496 
17 1 -10.368972778320312 3.589456796646118 5.774843692779541 
18 1 -9.565390586853027 2.213231563568115 -2.327394485473633 
19 1 -0.888879776000977 -1.659014225006104 4.926068305969238 
20 1 -10.242975234985352 -2.582262039184570 8.276346206665039 
21 1 10.864110946655273 -5.662605285644531 5.213642120361328 
22 1 -0.011593490839005 -7.199798583984375 -3.442980051040649 
23 1 -5.788204193115234 -7.167130470275879 7.287031650543213 
24 1 7.864019870758057 4.700896263122559 9.040291786193848 
25 1 7.231056690216064 -2.579359769821167 9.307919502258301 
26 1 -5.709079265594482 6.592349052429199 6.949808120727539 
27 1 8.155222892761230 -10.818407058715820 2.395367622375488 
28 1 0.292611658573151 10.273985862731934 6.161831378936768 
29 1 -3.048507928848267 -11.012116432189941 -4.645128250122070 
30 1 -6.092363357543945 3.029261589050293 -7.440178394317627 
31 1 -1.375958204269409 5.170814990997314 -7.424883365631104 
32 1 11.618522644042969 6.780054092407227 6.316669464111328 
33 1 4.628909587860107 6.069929122924805 1.468202948570251 
34 1 2.082677125930786 3.444403886795044 0.123186655342579 
35 1 0.419754028320312 -1.565213799476624 -5.487186908721924 
36 1 -10.488825798034668 -11.350598335266113 10.226650238037109 
37 1 11.535568237304688 -0.607275545597076 5.513025760650635 
38 1 -4.686625003814697 1.403536438941956 -1.537700891494751 
39 1 4.425726413726807 -4.076952934265137 -6.125051021575928 
40 1 -7.217864990234375 -4.583249568939209 2.401370763778687 
41 1 -3.347789049148560 -6.915166854858398 -5.232005119323730 
42 1 3.148425102233887 -10.297410011291504 -9.892996788024902 
43 1 -8.453417778015137 5.387247562408447 -9.109581947326660 
44 1 -2.316309690475464 -9.003898620605469 -1.774775862693787 
45 1 -8.410996437072754 10.703672409057617 7.616491794586182 
46 1 0.838487446308136 9.320393562316895 9.729771614074707 
47 1 7.305424690246582 -9.049100875854492 -4.436189174652100 
48 1 4.968832969665527 -8.972758293151855 8.789696693420410 
49 1 3.546459197998047 11.532890319824219 -5.772925853729248 
50 1 -10.733711242675781 -5.669721603393555 2.172749519348145 
51 1 -6.047314167022705 10.870795249938965 5.154736995697021 
52 1 -11.033615112304688 -0.571453332901001 -0.921679079532623 
53 1 -2.021448850631714 0.941481888294220 0.962224245071411 
54 1 -1.505696773529053 -0.727920591831207 -2.159129858016968 
55 1 3.660630226135254 -4.087660789489746 9.915187835693359 
56 1 3.001328468322754 8.278331756591797 -4.122463226318359 
57 1 6.792600154876709 -5.757559299468994 -10.511673927307129 
58 1 3.781742572784424 5.470761299133301 -1.791627407073975 
59 1 3.956191062927246 9.320191383361816 -8.864120483398438 
60 1 0.432972043752670 5.303054809570312 3.064104795455933 
61 1 2.494755506515503 0.912935495376587 -7.231969356536865 
62 1 8.557250976562500 7.598615169525146 -6.025574207305908 
63 1 -1.792118668556213 -5.600240230560303 -0.303951978683472 
64 1 -5.050657749176025 -6.678758621215820 0.780528545379639 
65 1 8.859716415405273 6.118851661682129 -2.762016057968140 
66 1 0.179330945014954 -3.375732183456421 -8.856420516967773 
67 1 5.424316406250000 -3.789515495300293 1.840119242668152 
68 1 9.671769142150879 7.362259387969971 10.871200561523438 
69 1 -11.515844345092773 -9.678587913513184 -2.352493047714233 
70 1 -6.838068008422852 -2.952774286270142 -6.539668083190918 
71 1 -0.969008803367615 9.675381660461426 -6.113383769989014 
72 1 3.740993976593018 1.154142379760742 2.582304239273071 
73 1 -7.500622749328613 0.424097716808319 -5.023468017578125 
74 1 -3.408894300460815 4.554346561431885 -10.330188751220703 
75 1 -10.565839767456055 -6.029073238372803 10.862090110778809 
76 1 3.722120523452759 10.493446350097656 3.791762351989746 
77 1 3.344673156738281 10.104394912719727 -1.391531348228455 
78 1 10.770384788513184 11.207662582397461 0.209034129977226 
79 1 3.999226570129395 -9.793150901794434 -2.828195571899414 
80 1 10.114702224731445 0.629520654678345 -9.683029174804688 
81 1 -9.850574493408203 0.765665829181671 8.418407440185547 
82 1 1.782614588737488 -6.468117713928223 0.064516119658947 
83 1 -2.573867559432983 9.479852676391602 0.271911740303040 
84 1 1.871811628341675 -0.557023763656616 -10.415612220764160 
85 1 -7.786709785461426 -3.094257354736328 10.912224769592285 
86 1 -8.478717803955078 9.478913307189941 1.811975121498108 
87 1 7.642600536346436 8.211084365844727 8.077700614929199 
88 1 -2.774754285812378 1.832392930984497 -6.501674175262451 
89 1 -2.932192087173462 5.418220520019531 4.811424732208252 
90 1 9.607953071594238 -4.273231506347656 -8.529627799987793 
91 1 3.336288690567017 11.471364974975586 6.986409664154053 
92 1 3.642707109451294 1.583825707435608 -3.075205802917480 
93 1 -7.165803909301758 8.066275596618652 10.061993598937988 
94 1 -8.738053321838379 7.726573944091797 5.123754978179932 
95 1 -8.626973152160645 10.261684417724609 -10.460926055908203 
96 1 5.881943225860596 4.730945587158203 -9.633658409118652 
97 1 -2.131456851959229 -9.446997642517090 9.775661468505859 
98 1 10.542722702026367 -7.410822391510010 -0.049504119902849 
99 1 0.160834446549416 -7.070610046386719 9.919679641723633 
100 1 -7.100085735321045 8.090339660644531 -2.061406850814819 
101 1 4.060650348663330 -1.056643962860107 5.673859596252441 
102 1 6.764139652252197 1.968597054481506 11.176291465759277 
103 1 0.529388308525085 -9.893054962158203 7.275286197662354 
104 1 -10.204097747802734 0.908635914325714 -11.344140052795410 
105 1 7.260206222534180 11.154119491577148 -5.587100982666016 
106 1 -9.667668342590332 -1.844006299972534 -4.239061355590820 
107 1 -5.203140735626221 -4.896145343780518 10.094174385070801 
108 1 -1.601325631141663 6.286948680877686 -4.372594356536865 
109 1 -10.480905532836914 8.144533157348633 -8.011174201965332 
110 1 -1.132039189338684 6.345585823059082 10.796195983886719 
111 1 -1.696020603179932 7.770746231079102 -9.315265655517578 
112 1 7.581934452056885 -7.553699493408203 3.961281061172485 
113 1 11.164845466613770 0.600822448730469 -4.748637676239014 
114 1 11.339761734008789 8.939034461975098 -4.408694744110107 
115 1 6.754467487335205 3.552989721298218 -3.055590152740479 
116 1 -7.938883304595947 -7.657174110412598 4.166193008422852 
117 1 -2.273787260055542 -3.799223423004150 7.635192394256592 
118 1 -3.251532554626465 9.061863899230957 6.275887966156006 
119 1 3.503241539001465 -7.000306606292725 -11.641712188720703 
120 1 11.160836219787598 9.626866340637207 8.668987274169922 
121 1 9.863636970520020 4.134356975555420 -5.680535793304443 
122 1 -6.578887462615967 11.279403686523438 -3.987520217895508 
123 1 11.553181648254395 4.001468181610107 8.986718177795410 
124 1 7.532784938812256 -11.471592903137207 8.662554740905762 
125 1 -7.066384315490723 0.596266329288483 11.009113311767578 
126 1 -9.787807464599609 1.417985558509827 3.010165214538574 
127 1 -10.710037231445312 2.747674465179443 -7.674270153045654 
128 1 -3.042058706283569 -0.005707320757210 7.443385124206543 
129 1 2.683114290237427 -6.282578468322754 7.090126037597656 
130 1 -3.867717742919922 -4.283383846282959 -7.823121070861816 
131 1 -3.649639368057251 6.351202964782715 -1.468711018562317 
132 1 4.879891395568848 -7.765365123748779 1.367645978927612 
133 1 -5.407199859619141 7.531630992889404 -9.688378334045410 
134 1 -7.928777694702148 0.385685592889786 -8.568670272827148 
135 1 7.329009056091309 9.556665420532227 -8.924325942993164 
136 1 -8.305932998657227 -8.821189880371094 8.883238792419434 
137 1 -1.575188875198364 -4.013944625854492 -3.692399501800537 
138 1 -7.220795631408691 -0.834296405315399 1.496176719665527 
139 1 -5.169294357299805 -10.839147567749023 8.156882286071777 
140 1 -4.356217384338379 3.757548570632935 -3.773495674133301 
141 1 8.491935729980469 -9.063954353332520 -10.602328300476074 
142 1 1.579294085502625 8.354331016540527 1.419590115547180 
143 1 0.204574793577194 1.736755013465881 3.918334722518921 
144 1 8.730028152465820 10.992681503295898 -2.386230945587158 
145 1 7.314441680908203 -9.197539329528809 -0.828156054019928 
146 1 -11.447327613830566 -2.608418464660645 -11.099089622497559 
147 1 -1.901182889938354 1.153528809547424 10.627230644226074 
148 1 5.727457523345947 0.912981569766998 -0.524217665195465 
149 1 -4.876841545104980 -4.924651145935059 -2.479780673980713 
150 1 6.496547698974609 -2.448790311813354 -1.474562287330627 
151 1 9.566623687744141 10.882025718688965 -11.463864326477051 
152 1 0.961214959621429 -3.017208337783813 -1.049547553062439 
153 1 -1.172148704528809 -2.758483409881592 1.824569106101990 
154 1 5.165081977844238 6.939129829406738 -6.742959022521973 
155 1 9.358671188354492 -1.685412526130676 0.779671311378479 
156 1 -6.431196212768555 2.864978790283203 1.659267783164978 
157 1 5.927340507507324 1.815455555915833 7.556094169616699 
158 1 9.934168815612793 -0.168435201048851 10.050928115844727 
159 1 -7.663569927215576 6.011714935302734 2.063275575637817 
160 1 -3.509162664413452 4.333188533782959 9.128492355346680 
161 1 -6.637029170989990 0.606753408908844 4.868566036224365 
162 1 -3.598433971405029 9.223406791687012 9.805450439453125 
163 1 11.548261642456055 -7.300508975982666 -9.250718116760254 
164 1 -2.085557699203491 -4.906531810760498 -11.194495201110840 
165 1 7.698520183563232 4.068529605865479 0.297500222921371 
166 1 -7.583374977111816 10.724660873413086 -7.075312614440918 
167 1 -5.621621131896973 -8.529833793640137 -3.145313024520874 
168 1 8.088663101196289 -2.379638671875000 -10.327206611633301 
169 1 1.112358927726746 -8.937466621398926 -6.873283863067627 
170 1 -0.236220672726631 9.777383804321289 -2.517574548721313 
171 1 6.943305015563965 -5.808626174926758 8.995696067810059 
172 1 -8.594627380371094 7.413900375366211 -5.548832893371582 
173 1 3.394543886184692 -2.295659542083740 -3.311644077301025 
174 1 3.043282985687256 -5.766141414642334 3.658487796783447 
175 1 -11.279458045959473 -9.480607986450195 6.969556808471680 
176 1 -4.936030864715576 6.330598831176758 -6.223321914672852 
177 1 8.987281799316406 -4.956117630004883 1.784516572952271 
178 1 4.940861701965332 3.929811477661133 4.695550441741943 
179 1 6.111014366149902 -10.135975837707520 -7.901086330413818 
180 1 -10.995896339416504 4.590474128723145 -11.067728042602539 
181 1 -10.941638946533203 -1.847903728485107 -7.827431678771973 
182 1 2.369033813476562 -9.973424911499023 0.328842163085938 
183 1 3.993262767791748 7.966586589813232 8.125868797302246 
184 1 -3.740065813064575 -8.366190910339355 -10.395972251892090 
185 1 -7.271499633789062 -7.053988933563232 -11.027853965759277 
186 1 0.321606427431107 1.615782141685486 -4.357945919036865 
187 1 -5.263513088226318 -1.870898842811584 -10.076683044433594 
188 1 9.382172584533691 8.225459098815918 0.266416430473328 
189 1 9.554941177368164 6.203549385070801 -8.813807487487793 
190 1 2.520785331726074 -10.534816741943359 10.227390289306641 
191 1 -6.518283367156982 4.411273002624512 11.196489334106445 
192 1 10.497924804687500 10.664719581604004 -7.235233783721924 
193 1 -0.455762773752213 11.499377250671387 2.003129482269287 
194 1 2.360233306884766 7.158025264739990 -10.913015365600586 
195 1 -8.995136260986328 -8.323961257934570 -4.436260700225830 
196 1 5.811753273010254 -4.548643589019775 5.531207561492920 
197 1 -8.470763206481934 -4.797708511352539 -3.495467901229858 
198 1 7.563345909118652 2.097692251205444 -7.991548538208008 
199 1 8.884004592895508 -1.224253296852112 -6.729605674743652 
200 1 10.791691780090332 -3.992593288421631 -1.335924625396729 
201 1 -9.577564239501953 -11.012731552124023 4.320740222930908 
202 1 3.808742284774780 -3.750315904617310 -9.760055541992188 
203 1 8.465175628662109 2.939223289489746 3.725927352905273 
204 1 -8.456048965454102 -7.040662765502930 -0.418304890394211 
205 1 -6.718938827514648 2.691505670547485 8.053380012512207 
206 1 10.364514350891113 5.712672233581543 2.143973112106323 
207 1 -6.467878341674805 -6.435235023498535 -7.472015380859375 
208 1 -2.215130329132080 -10.503035545349121 -8.152696609497070 
209 1 0.006899233907461 -8.185889244079590 2.570811510086060 
210 1 5.394958019256592 -0.426466941833496 -5.910757541656494 
211 1 5.870515346527100 7.879524707794189 11.418698310852051 
212 1 -4.143629074096680 -1.064657330513000 3.240483999252319 
213 1 2.171802997589111 5.614843368530273 6.475691795349121 
214 1 6.190788745880127 -10.395648956298828 5.491343498229980 
215 1 -1.683337450027466 10.923259735107422 -11.204601287841797 
216 1 6.708711624145508 9.135330200195312 2.013548374176025 
217 1 -2.249619960784912 -0.986214518547058 -7.948320388793945 
218 1 4.982942104339600 3.261935472488403 -6.153486251831055 
219 1 7.067930698394775 -6.168109893798828 -6.668318271636963 
220 1 -6.492622852325439 -1.224293112754822 7.900246143341064 
221 1 -1.058871746063232 8.179334640502930 3.477896928787231 
222 1 -1.958806633949280 -7.441131591796875 6.711025714874268 
223 2 -5.116696357727051 -1.499038100242615 1.410798907279968 
224 2 -9.146746635437012 8.430313110351562 -1.438730955123901 
225 2 10.312465667724609 9.545103073120117 4.688946247100830 
226 2 6.447939872741699 2.701608419418335 -0.361522704362869 
227 2 -4.357624530792236 -8.369901657104492 1.122361540794373 
228 2 9.182032585144043 -2.765547275543213 -5.441882610321045 
229 2 9.198407173156738 -8.805306434631348 -5.217489242553711 
230 2 -8.213863372802734 7.666964530944824 1.048254370689392 
231 2 -6.108263492584229 9.553822517395020 -3.203177928924561 
232 2 10.999235153198242 10.996974945068359 10.209814071655273 
233 2 -5.832986354827881 2.788066148757935 -0.536529183387756 
234 2 6.675647735595703 -10.753743171691895 3.696897268295288 
235 2 7.267988204956055 -4.358644008636475 -2.233039855957031 
236 2 10.681758880615234 -5.927855491638184 -1.335289478302002 
237 2 9.152707099914551 10.132099151611328 -8.509716987609863 
238 2 -4.954730987548828 -10.301039695739746 -10.920307159423828 
239 2 10.971592903137207 -3.585786104202271 -7.337155818939209 
240 2 -3.446855545043945 8.061146736145020 -9.897954940795898 
241 2 7.396923542022705 7.729692935943604 10.143379211425781 
242 2 6.102357864379883 3.530471563339233 -7.941284179687500 
243 2 -9.508207321166992 -11.298041343688965 -9.661815643310547 
244 2 -2.891417026519775 8.693176269531250 4.259451389312744 
245 2 -0.941291570663452 9.489888191223145 -9.929054260253906 
246 2 4.380288124084473 -10.492754936218262 -6.944941520690918 
247 2 6.284705162048340 -5.908415317535400 -8.547487258911133 
248 2 9.326597213745117 10.023226737976074 -0.674980938434601 
249 2 -6.330614089965820 -9.048895835876465 8.141509056091309 
250 2 -6.875303745269775 -10.882530212402344 -8.013850212097168 
251 2 -3.968399286270142 10.231035232543945 -1.096637010574341 
252 2 -11.339713096618652 -10.059976577758789 11.458008766174316 
253 2 1.682535648345947 4.080564975738525 7.741654396057129 
254 2 -9.228168487548828 1.757702469825745 -8.366385459899902 
255 2 -11.474870681762695 7.437525272369385 -3.316650867462158 
256 2 -6.931169509887695 10.599008560180664 1.863936305046082 
257 2 10.873178482055664 0.693794906139374 -0.619325101375580 
258 2 10.440052032470703 2.616857290267944 -4.414534568786621 
259 2 11.543776512145996 8.426125526428223 7.277182102203369 
260 2 11.198496818542480 10.859590530395508 -10.387151718139648 
261 2 4.566805362701416 -3.490955591201782 -7.975546360015869 
262 2 4.611678600311279 5.613977432250977 3.508307456970215 
263 2 -0.437031656503677 -8.626003265380859 -2.237293720245361 
264 2 -3.841693162918091 -5.223938941955566 11.419583320617676 
265 2 -3.722022056579590 0.865352451801300 -0.023848908022046 
266 2 -3.750991344451904 -3.808072328567505 6.534213066101074 
267 2 -2.396004438400269 -10.548502922058105 -2.901787042617798 
268 2 -4.334321498870850 8.142567634582520 -5.186523914337158 
269 2 9.416107177734375 7.315783500671387 -1.396563291549683 
270 2 -9.760177612304688 10.644541740417480 11.343165397644043 
271 2 -7.817283630371094 -8.928804397583008 -10.275113105773926 
272 2 3.243083477020264 -4.551184654235840 -11.517699241638184 
273 2 -8.726435661315918 -5.978112220764160 -1.961238145828247 
274 2 10.185965538024902 -3.178911447525024 -10.151199340820312 
275 2 -8.994505882263184 -0.155304014682770 2.055405139923096 
276 2 5.497240543365479 -0.991378128528595 -0.684490025043488 
277 2 7.835400581359863 4.613763809204102 -1.650901675224304 
278 2 -3.353034973144531 -0.081126555800438 -6.191565990447998 
279 2 7.335959911346436 8.394564628601074 0.052039302885532 
280 2 -4.751455307006836 -11.050140380859375 1.290604948997498 
281 2 2.539877414703369 -9.684082031250000 -1.511997222900391 
282 2 -10.288252830505371 -3.761704444885254 -3.856157064437866 
283 2 -9.733597755432129 -8.347897529602051 7.526747226715088 
284 2 -8.376971244812012 1.197561502456665 4.290692806243896 
285 2 9.042611122131348 2.284937858581543 -9.762720108032227 
286 2 7.732759952545166 -2.564842700958252 11.163340568542480 
287 2 -2.304559946060181 -1.691281318664551 3.518926858901978 
288 2 9.368224143981934 2.813962697982788 -0.261007159948349 
289 2 -6.773433685302734 6.375760078430176 11.027856826782227 
290 2 -8.570646286010742 9.223473548889160 6.450657367706299 
291 2 11.208964347839355 7.191668033599854 -8.547110557556152 
292 2 2.040713548660278 6.146782398223877 -1.310955286026001 
293 2 -7.992738246917725 -3.353514671325684 -4.903986930847168 
294 2 -3.274176359176636 0.652880430221558 2.516146421432495 
295 2 -10.409942626953125 -6.083324909210205 -8.506096839904785 
296 2 -4.495117187500000 6.363064765930176 5.427707672119141 
297 2 3.474727869033813 -5.732526779174805 -9.214427947998047 
298 2 -0.939525783061981 11.259169578552246 -7.687844276428223 
299 2 -8.756538391113281 -10.224996566772461 -4.210643768310547 
300 2 -2.240403175354004 7.354949951171875 6.219890594482422 
301 2 1.502526998519897 -10.837656021118164 -6.309576988220215 
302 2 -8.260758399963379 1.847875833511353 -3.809168577194214 
303 2 -7.342516422271729 -6.040434837341309 -9.314661979675293 
304 2 -6.746253967285156 -3.809572458267212 9.498223304748535 
305 2 -1.820793390274048 0.987999737262726 -8.181182861328125 
306 2 -2.052985668182373 -9.739583969116211 -0.080804891884327 
307 2 -2.555515289306641 3.929730176925659 3.471681833267212 
308 2 2.678877353668213 -0.375722497701645 1.605613827705383 
309 2 2.024336814880371 -3.757586956024170 -2.673984289169312 
310 2 -9.261881828308105 -3.978921890258789 7.082227706909180 
311 2 7.559547424316406 -11.526748657226562 6.393193244934082 
312 2 -5.083262920379639 -2.331856250762939 -5.983562469482422 
313 2 5.805054664611816 7.832015514373779 7.257595539093018 
314 2 1.395312428474426 -6.112468719482422 -4.320830345153809 
315 2 3.997322082519531 4.011493682861328 -9.778961181640625 
316 2 -0.046455509960651 8.905677795410156 4.911141872406006 
317 2 1.029120802879333 -11.110463142395020 1.089048385620117 
318 2 -8.055627822875977 -3.447680473327637 -7.887078285217285 
319 2 6.038671493530273 -10.771241188049316 9.767284393310547 
320 2 -11.113368034362793 -11.097531318664551 0.843432784080505 
321 2 -3.324382305145264 -4.746776580810547 -3.584243774414062 
322 2 1.695090770721436 7.398174762725830 -5.316524028778076 
323 2 -8.488389015197754 1.992593526840210 7.854613304138184 
324 2 10.199170112609863 -8.679101943969727 -9.382387161254883 
325 2 -4.939081192016602 -10.280763626098633 6.263352870941162 
326 2 11.320423126220703 -0.911446452140808 -9.321303367614746 
327 2 -10.693142890930176 -4.000598907470703 -0.932474315166473 
328 2 -2.088701486587524 3.024126529693604 0.429001063108444 
329 2 8.419973373413086 11.389274597167969 10.324825286865234 
330 2 7.128813266754150 10.023555755615234 8.442263603210449 
331 2 9.713021278381348 6.563518047332764 5.734942436218262 
332 2 -7.057101726531982 -3.889972209930420 4.291351318359375 
333 2 -2.394303083419800 -7.564260482788086 -6.781102180480957 
334 2 -6.417484283447266 1.678450703620911 -8.984930992126465 
335 2 3.056424856185913 6.124264717102051 -3.578111886978149 
336 2 5.904508590698242 -3.690043449401855 -0.088736049830914 
337 2 7.825165271759033 -10.981302261352539 -1.326260209083557 
338 2 -1.061513543128967 -5.943322181701660 10.781749725341797 
339 2 -9.595756530761719 0.756286144256592 -1.078242421150208 
340 2 -9.036526679992676 -6.287839889526367 -4.570747852325439 
341 2 7.251881599426270 9.800707817077637 -2.609233140945435 
342 2 7.952118396759033 3.578713655471802 10.654550552368164 
343 2 -11.239766120910645 5.219664096832275 5.298816680908203 
344 2 8.404479026794434 7.738430023193359 -8.120982170104980 
345 2 -4.963207244873047 4.739506721496582 -7.422796726226807 
346 2 -11.143445968627930 2.969787597656250 -1.209704160690308 
347 2 4.991459369659424 -2.784157276153564 5.405546188354492 
348 2 10.471392631530762 4.843559265136719 -2.431771516799927 
349 2 4.733927249908447 7.766025066375732 9.878757476806641 
350 2 9.545951843261719 -10.965136528015137 1.109374880790710 
351 2 -5.073485374450684 -7.487268447875977 -6.268602848052979 
352 2 4.922919273376465 3.010251760482788 11.083981513977051 
353 2 -5.908342838287354 -11.061946868896484 3.893285036087036 
354 2 1.178557157516479 -4.917092800140381 6.333003044128418 
355 2 3.605374097824097 -10.740020751953125 8.622644424438477 
356 2 2.447413206100464 -5.923302650451660 1.796328306198120 
357 2 3.672373294830322 -2.221286773681641 10.224023818969727 
358 2 2.002676725387573 -1.889431357383728 -4.538878917694092 
359 2 -4.254335880279541 -8.946056365966797 -1.905344247817993 
360 2 9.970688819885254 1.977451324462891 3.091151237487793 
361 2 -11.554733276367188 -5.979978561401367 7.017782688140869 
362 2 3.335355997085571 11.634850502014160 -0.024493159726262 
363 2 8.712700843811035 -2.403552055358887 -8.294655799865723 
364 2 -8.620732307434082 -3.705532550811768 -10.867410659790039 
365 2 -9.563845634460449 6.670147418975830 6.784772396087646 
366 2 -4.491620063781738 11.164792060852051 -4.017481327056885 
367 2 -7.646738529205322 4.425650596618652 -10.624491691589355 
368 2 -0.878996133804321 -5.470026969909668 -2.289312362670898 
369 2 0.256987124681473 -7.512191295623779 -9.565929412841797 
370 2 -2.255970001220703 8.789165496826172 -7.601632118225098 
371 2 -8.351924896240234 -5.997060298919678 -7.006742954254150 
372 2 -4.130848407745361 -7.525700569152832 3.785785436630249 
373 2 -2.560390949249268 -1.880168795585632 8.194177627563477 
374 2 11.248414993286133 5.218678474426270 -4.829413414001465 
375 2 -1.612147569656372 -3.273209571838379 10.875563621520996 
376 2 -0.185539498925209 -6.469552516937256 0.435163229703903 
377 2 4.572719573974609 -2.176104784011841 -5.477271080017090 
378 2 10.181234359741211 -3.788563013076782 -3.148660182952881 
379 2 6.892544746398926 -9.975664138793945 -11.189385414123535 
380 2 -11.514879226684570 -8.294798851013184 5.501371383666992 
381 2 -6.864585399627686 4.520276069641113 3.087243080139160 
382 2 10.511981964111328 9.726413726806641 1.549585938453674 
383 2 -5.684479236602783 -0.151082485914230 -1.665586709976196 
384 2 -0.446717798709869 -8.692101478576660 10.918208122253418 
385 2 -9.936473846435547 8.657653808593750 -9.859567642211914 
386 2 -7.329523086547852 4.402350425720215 -3.081024408340454 
387 2 -5.004234790802002 3.165096282958984 8.591357231140137 
388 2 7.102961540222168 6.938702106475830 -2.723433971405029 
389 2 -7.968440532684326 7.896663665771484 -3.806323289871216 
390 2 4.097123622894287 9.915070533752441 7.660615921020508 
391 2 -11.133454322814941 -0.615316033363342 9.042653083801270 
392 2 1.985685706138611 5.339081287384033 -6.887621402740479 
393 2 -7.421710968017578 -1.153721451759338 -6.332441806793213 
394 2 4.744710445404053 0.014665787108243 3.879005432128906 
395 2 -1.002824068069458 5.298203945159912 1.665085554122925 
396 2 10.915915489196777 -1.948461890220642 4.104619026184082 
397 2 -6.551033496856689 3.441682577133179 -5.610852241516113 
398 2 -0.993529796600342 -0.962584972381592 -6.518444538116455 
399 2 -3.664269208908081 -9.827664375305176 8.759001731872559 
400 2 -0.451379895210266 6.932019233703613 -8.002046585083008 
401 2 9.834196090698242 -4.558992385864258 3.692915439605713 
402 2 -10.984470367431641 -4.508251190185547 4.905808925628662 
403 2 -6.543002128601074 -5.038441181182861 -3.367407798767090 
404 2 3.634860515594482 -3.185548782348633 1.698431849479675 
405 2 -8.203439712524414 -4.957308769226074 0.522996723651886 
406 2 2.797232151031494 0.511229693889618 6.247225761413574 
407 2 5.704378128051758 -0.224860370159149 6.498527050018311 
408 2 -10.182542800903320 -6.612756252288818 0.524924814701080 
409 2 5.182257652282715 -5.840816497802734 1.143269658088684 
410 2 5.532699584960938 -4.174482822418213 -10.562563896179199 
411 2 0.886537611484528 -2.392753601074219 0.921229004859924 
412 2 -0.952245533466339 -9.956334114074707 2.365957498550415 
413 2 -4.917862415313721 7.599229335784912 -7.752776622772217 
414 2 -7.586347579956055 -1.510677933692932 -0.325391530990601 
415 2 3.890660524368286 -5.454020023345947 5.647748947143555 
416 2 9.556175231933594 -1.766532659530640 6.146201610565186 
417 2 8.347347259521484 -4.253561019897461 9.015141487121582 
418 2 -6.274856567382812 -10.831664085388184 -5.567953109741211 
419 2 -1.233888864517212 -0.772654175758362 10.496032714843750 
420 2 3.512132883071899 7.727513313293457 -7.636219501495361 
421 2 -10.563817977905273 0.671951413154602 6.626247406005859 
422 2 9.322914123535156 7.300708293914795 -4.281119823455811 
423 2 -2.094298601150513 4.476237773895264 6.222477912902832 
424 2 4.144640922546387 -9.681665420532227 1.303147912025452 
425 2 -0.117121562361717 -11.076124191284180 5.852451801300049 
426 2 -6.508822917938232 -0.581513166427612 3.306207418441772 
427 2 8.027069091796875 -2.090780973434448 -0.430407464504242 
428 2 -2.848647117614746 -1.667225837707520 -1.138080000877380 
429 2 3.913837432861328 2.832889795303345 -4.518744468688965 
430 2 1.597609639167786 -9.838032722473145 -8.787685394287109 
431 2 -5.308632850646973 8.503799438476562 9.907119750976562 
432 2 -11.088277816772461 -9.998739242553711 3.471124649047852 
433 2 -10.677454948425293 7.969836235046387 4.847356319427490 
434 2 6.119087219238281 -5.308798313140869 7.325140476226807 
435 2 -1.634014606475830 -6.365040302276611 5.055592536926270 
436 2 9.933089256286621 0.429593682289124 -2.981307744979858 
437 2 -11.061381340026855 -3.757346630096436 1.954481959342957 
438 2 -4.790753364562988 10.403408050537109 -8.482950210571289 
439 2 -3.366896629333496 -10.231118202209473 3.700676918029785 
440 2 -1.767936229705811 1.830574631690979 4.734804630279541 
441 2 -6.880331039428711 -10.913911819458008 -0.116380661725998 
442 2 1.601436495780945 8.482813835144043 11.342890739440918 
443 2 -0.683777630329132 -9.355470657348633 -7.673306941986084 
444 2 -6.857021808624268 4.663094043731689 0.679106533527374 
445 2 -7.211251735687256 1.300121307373047 -6.720490455627441 
446 2 7.397770881652832 1.393238425254822 3.967231273651123 
447 2 -6.617095947265625 0.739422500133514 9.026569366455078 
448 2 0.165689662098885 3.630176782608032 3.937521219253540 
449 2 9.408222198486328 5.878799915313721 -6.795094966888428 
450 2 11.582188606262207 -6.559344291687012 3.609415292739868 
451 2 0.577459335327148 1.928889751434326 6.013030529022217 
452 2 2.752098083496094 -1.578106641769409 4.356596469879150 
453 2 2.573255300521851 -1.761955857276917 -1.413795590400696 
454 2 -4.501698017120361 3.209978342056274 1.931837916374207 
455 2 10.171716690063477 0.706222891807556 5.823808670043945 
456 2 -6.428954124450684 11.081701278686523 7.102880477905273 
457 2 4.075266361236572 8.094105720520020 -10.517288208007812 
458 2 -3.209041833877563 0.258154124021530 9.453985214233398 
459 2 6.101867675781250 5.203569412231445 9.519041061401367 
460 2 -1.856468439102173 -5.648803710937500 7.564706802368164 
461 2 6.909418106079102 8.357336997985840 -10.347936630249023 
462 2 11.316607475280762 5.741829872131348 8.026246070861816 
463 2 -1.218170285224915 6.276124954223633 4.112867832183838 
464 2 0.469197750091553 -1.684931874275208 6.368932723999023 
465 2 5.492549896240234 2.000149011611938 -2.581125497817993 
466 2 9.769300460815430 -4.569579124450684 6.304727554321289 
467 2 -4.720678329467773 4.653228759765625 10.661873817443848 
468 2 9.599925994873047 -10.674267768859863 -10.706664085388184 
469 2 -8.783713340759277 -9.279127120971680 4.858748435974121 
470 2 -8.875535011291504 -8.965270996093750 0.062570638954639 
471 2 2.482267618179321 -7.365477085113525 5.386588573455811 
472 2 0.368747800588608 0.598611414432526 -10.268746376037598 
473 2 6.697091579437256 -7.420090198516846 -5.224092960357666 
474 2 -2.442586183547974 -6.832929611206055 -9.897364616394043 
475 2 -0.926784336566925 9.955121994018555 -0.695439755916595 