LAMMPS (7 Dec 2015)
Reading data file ...
  triclinic box = (0 0 0) to (23.3007 23.3007 23.3007) with tilt (0 0 0)
  2 by 2 by 3 MPI processor grid
  reading atoms ...
  1008 atoms
Bisection: Getting new map
Scanning dump file ...
Reading snapshot from dump file ...
  triclinic box = (0 0 0) to (23.3007 23.3007 23.3007) with tilt (0 0 0)
  1008 atoms before read
  1008 atoms in snapshot
  0 atoms purged
  1008 atoms replaced
  0 atoms trimmed
  0 atoms added
  1008 atoms after read
Scanning dump file ...
Reading snapshot from dump file ...
  triclinic box = (0 0 0) to (23.3007 23.3007 23.3007) with tilt (0 0 0)
  1008 atoms before read
  1008 atoms in snapshot
  0 atoms purged
  1008 atoms replaced
  0 atoms trimmed
  0 atoms added
  1008 atoms after read
CR_UPDATE- 23.300680	23.300680	23.300680	0.000000	0.000000	0.000000
For k = 0, applying strain of 0.995
Changing box ...
  triclinic box = (0.0582517 0 0) to (23.2424 23.3007 23.3007) with tilt (0 0 0)
WARNING: Resetting reneighboring criteria during minimization (../min.cpp:168)
Ewald initialization ...
  G vector (1/distance) = 0.365089
  estimated absolute RMS force accuracy = 1.92191e-05
  estimated relative force accuracy = 1.33469e-06
  KSpace vectors: actual max1d max3d = 2088 10 4630
                  kxmax kymax kzmax  = 10 10 10
Neighbor list info ...
  2 neighbor list requests
  update every 1 steps, delay 0 steps, check yes
  max neighbors/atom: 2000, page size: 100000
  master list distance cutoff = 11
  ghost atom cutoff = 11
Setting up cg style minimization ...
  Unit style: metal
Memory usage per processor = 4.56167 Mbytes
Step Temp E_pair E_mol TotEng Press 
       0           10    -18274.58            0   -18273.278    3118.3382 
      18           10   -18274.729            0   -18273.428    -515.9633 
Loop time of 0.238414 on 12 procs for 18 steps with 1008 atoms

99.7% CPU use with 12 MPI tasks x no OpenMP threads

Minimization stats:
  Stopping criterion = linesearch alpha is zero
  Energy initial, next-to-last, final = 
        -18274.5795886     -18274.7294019     -18274.7294019
  Force two-norm initial, final = 1.82281 0.15663
  Force max component initial, final = 0.160546 0.0165676
  Final line search alpha, max atom move = 4.76837e-07 7.90005e-09
  Iterations, force evaluations = 18 77

MPI task timing breakdown:
Section |  min time  |  avg time  |  max time  |%varavg| %total
---------------------------------------------------------------
Pair    | 0.075054   | 0.086629   | 0.094622   |   1.6 | 36.34
Kspace  | 0.13031    | 0.13356    | 0.13594    |   0.5 | 56.02
Neigh   | 0          | 0          | 0          |   0.0 |  0.00
Comm    | 0.010337   | 0.015429   | 0.024168   |   2.8 |  6.47
Output  | 0          | 0          | 0          |   0.0 |  0.00
Modify  | 0          | 0          | 0          |   0.0 |  0.00
Other   |            | 0.002799   |            |       |  1.17

Nlocal:    84 ave 87 max 77 min
Histogram: 1 0 0 0 0 3 0 2 1 5
Nghost:    2612.67 ave 2646 max 2582 min
Histogram: 2 1 1 0 3 1 1 1 1 1
Neighs:    18732.2 ave 19451 max 17072 min
Histogram: 1 0 0 0 1 3 0 1 1 5

Total # of neighbors = 224786
Ave neighs/atom = 223.002
Neighbor list builds = 0
Dangerous builds = 0
CR_UPDATE- 23.300680	23.300680	23.300680	0.000000	0.000000	0.000000
For k = 1, applying strain of 0.996667
Changing box ...
  triclinic box = (0.0388306 0 0) to (23.2618 23.3007 23.3007) with tilt (0 0 0)
WARNING: Resetting reneighboring criteria during minimization (../min.cpp:168)
Ewald initialization ...
  G vector (1/distance) = 0.365078
  estimated absolute RMS force accuracy = 1.92793e-05
  estimated relative force accuracy = 1.33888e-06
  KSpace vectors: actual max1d max3d = 2084 10 4630
                  kxmax kymax kzmax  = 10 10 10
Setting up cg style minimization ...
  Unit style: metal
Memory usage per processor = 4.56167 Mbytes
Step Temp E_pair E_mol TotEng Press 
      18           10   -18274.648            0   -18273.347   -495.68862 
      34           10   -18274.712            0    -18273.41   -2866.9887 
Loop time of 0.227299 on 12 procs for 16 steps with 1008 atoms

100.0% CPU use with 12 MPI tasks x no OpenMP threads

Minimization stats:
  Stopping criterion = linesearch alpha is zero
  Energy initial, next-to-last, final = 
        -18274.6483691     -18274.7117847     -18274.7117847
  Force two-norm initial, final = 1.20771 0.12711
  Force max component initial, final = 0.105994 0.0121386
  Final line search alpha, max atom move = 4.76837e-07 5.78813e-09
  Iterations, force evaluations = 16 73

MPI task timing breakdown:
Section |  min time  |  avg time  |  max time  |%varavg| %total
---------------------------------------------------------------
Pair    | 0.074383   | 0.083742   | 0.088724   |   1.4 | 36.84
Kspace  | 0.12261    | 0.12613    | 0.12955    |   0.4 | 55.49
Neigh   | 0          | 0          | 0          |   0.0 |  0.00
Comm    | 0.010069   | 0.014713   | 0.022589   |   2.6 |  6.47
Output  | 0          | 0          | 0          |   0.0 |  0.00
Modify  | 0          | 0          | 0          |   0.0 |  0.00
Other   |            | 0.002714   |            |       |  1.19

Nlocal:    84 ave 87 max 77 min
Histogram: 1 0 0 0 0 3 0 2 1 5
Nghost:    2609.92 ave 2646 max 2575 min
Histogram: 2 1 1 0 3 0 1 2 1 1
Neighs:    18699.9 ave 19427 max 17042 min
Histogram: 1 0 0 0 1 3 1 0 1 5

Total # of neighbors = 224399
Ave neighs/atom = 222.618
Neighbor list builds = 0
Dangerous builds = 0
CR_UPDATE- 23.300680	23.300680	23.300680	0.000000	0.000000	0.000000
For k = 2, applying strain of 0.998333
Changing box ...
  triclinic box = (0.0194211 0 0) to (23.2813 23.3007 23.3007) with tilt (0 0 0)
WARNING: Resetting reneighboring criteria during minimization (../min.cpp:168)
Ewald initialization ...
  G vector (1/distance) = 0.365066
  estimated absolute RMS force accuracy = 1.9345e-05
  estimated relative force accuracy = 1.34344e-06
  KSpace vectors: actual max1d max3d = 2084 10 4630
                  kxmax kymax kzmax  = 10 10 10
Setting up cg style minimization ...
  Unit style: metal
Memory usage per processor = 4.56167 Mbytes
Step Temp E_pair E_mol TotEng Press 
      34           10   -18274.629            0   -18273.327   -4068.5443 
      42           10   -18274.643            0   -18273.342   -5109.5367 
Loop time of 0.175115 on 12 procs for 8 steps with 1008 atoms

99.8% CPU use with 12 MPI tasks x no OpenMP threads

Minimization stats:
  Stopping criterion = linesearch alpha is zero
  Energy initial, next-to-last, final = 
         -18274.628709     -18274.6432003     -18274.6432003
  Force two-norm initial, final = 0.599962 0.137409
  Force max component initial, final = 0.0524808 0.0165495
  Final line search alpha, max atom move = 4.76837e-07 7.89142e-09
  Iterations, force evaluations = 8 57

MPI task timing breakdown:
Section |  min time  |  avg time  |  max time  |%varavg| %total
---------------------------------------------------------------
Pair    | 0.056432   | 0.064748   | 0.068912   |   1.4 | 36.97
Kspace  | 0.094225   | 0.097642   | 0.10009    |   0.5 | 55.76
Neigh   | 0          | 0          | 0          |   0.0 |  0.00
Comm    | 0.0072513  | 0.010991   | 0.016609   |   2.3 |  6.28
Output  | 0          | 0          | 0          |   0.0 |  0.00
Modify  | 0          | 0          | 0          |   0.0 |  0.00
Other   |            | 0.001734   |            |       |  0.99

Nlocal:    84 ave 87 max 77 min
Histogram: 1 0 0 0 0 3 0 2 1 5
Nghost:    2609.25 ave 2645 max 2575 min
Histogram: 2 1 1 0 3 0 1 2 1 1
Neighs:    18668.9 ave 19397 max 17001 min
Histogram: 1 0 0 0 1 3 1 0 1 5

Total # of neighbors = 224027
Ave neighs/atom = 222.249
Neighbor list builds = 0
Dangerous builds = 0
CR_UPDATE- 23.300680	23.300680	23.300680	0.000000	0.000000	0.000000
For k = 3, applying strain of 1
Changing box ...
  triclinic box = (0 0 0) to (23.3007 23.3007 23.3007) with tilt (0 0 0)
WARNING: Resetting reneighboring criteria during minimization (../min.cpp:168)
Ewald initialization ...
  G vector (1/distance) = 0.365055
  estimated absolute RMS force accuracy = 1.94166e-05
  estimated relative force accuracy = 1.34841e-06
  KSpace vectors: actual max1d max3d = 2084 10 4630
                  kxmax kymax kzmax  = 10 10 10
Setting up cg style minimization ...
  Unit style: metal
Memory usage per processor = 4.56167 Mbytes
Step Temp E_pair E_mol TotEng Press 
      42           10   -18274.524            0   -18273.222   -7605.4286 
      43           10   -18274.524            0   -18273.222   -7605.4286 
Loop time of 0.0744889 on 12 procs for 1 steps with 1008 atoms

99.9% CPU use with 12 MPI tasks x no OpenMP threads

Minimization stats:
  Stopping criterion = linesearch alpha is zero
  Energy initial, next-to-last, final = 
        -18274.5239888     -18274.5239888     -18274.5239888
  Force two-norm initial, final = 0.00471233 0.00471233
  Force max component initial, final = 0.000334354 0.000334354
  Final line search alpha, max atom move = 0.000488281 1.63259e-07
  Iterations, force evaluations = 1 23

MPI task timing breakdown:
Section |  min time  |  avg time  |  max time  |%varavg| %total
---------------------------------------------------------------
Pair    | 0.024302   | 0.027614   | 0.02935    |   0.8 | 37.07
Kspace  | 0.040256   | 0.041541   | 0.042407   |   0.3 | 55.77
Neigh   | 0          | 0          | 0          |   0.0 |  0.00
Comm    | 0.0031979  | 0.0046018  | 0.0069208  |   1.4 |  6.18
Output  | 0          | 0          | 0          |   0.0 |  0.00
Modify  | 0          | 0          | 0          |   0.0 |  0.00
Other   |            | 0.0007329  |            |       |  0.98

Nlocal:    84 ave 87 max 77 min
Histogram: 1 0 0 0 0 3 0 2 1 5
Nghost:    2608.25 ave 2643 max 2575 min
Histogram: 2 1 1 0 3 1 0 2 1 1
Neighs:    18639.8 ave 19374 max 16978 min
Histogram: 1 0 0 0 1 3 1 1 0 5

Total # of neighbors = 223678
Ave neighs/atom = 221.903
Neighbor list builds = 0
Dangerous builds = 0
CR_UPDATE- 23.300680	23.300680	23.300680	0.000000	0.000000	0.000000
For k = 4, applying strain of 1.00167
Changing box ...
  triclinic box = (-0.0194211 0 0) to (23.3201 23.3007 23.3007) with tilt (0 0 0)
WARNING: Resetting reneighboring criteria during minimization (../min.cpp:168)
Ewald initialization ...
  G vector (1/distance) = 0.365044
  estimated absolute RMS force accuracy = 1.94944e-05
  estimated relative force accuracy = 1.35381e-06
  KSpace vectors: actual max1d max3d = 2084 10 4630
                  kxmax kymax kzmax  = 10 10 10
Setting up cg style minimization ...
  Unit style: metal
Memory usage per processor = 4.56167 Mbytes
Step Temp E_pair E_mol TotEng Press 
      43           10   -18274.337            0   -18273.035   -11104.931 
      50           10    -18274.35            0   -18273.048   -10054.949 
      56           10   -18274.352            0    -18273.05   -9964.1144 
Loop time of 0.195263 on 12 procs for 13 steps with 1008 atoms

99.6% CPU use with 12 MPI tasks x no OpenMP threads

Minimization stats:
  Stopping criterion = linesearch alpha is zero
  Energy initial, next-to-last, final = 
        -18274.3368054     -18274.3518057     -18274.3518057
  Force two-norm initial, final = 0.595742 0.07903
  Force max component initial, final = 0.0516792 0.00926451
  Final line search alpha, max atom move = 1.90735e-06 1.76707e-08
  Iterations, force evaluations = 13 63

MPI task timing breakdown:
Section |  min time  |  avg time  |  max time  |%varavg| %total
---------------------------------------------------------------
Pair    | 0.062469   | 0.071106   | 0.075863   |   1.4 | 36.42
Kspace  | 0.10349    | 0.10784    | 0.11045    |   0.5 | 55.23
Neigh   | 0          | 0          | 0          |   0.0 |  0.00
Comm    | 0.0096507  | 0.013718   | 0.021202   |   2.5 |  7.03
Output  | 4.8161e-05 | 5.2015e-05 | 5.6028e-05 |   0.0 |  0.03
Modify  | 0          | 0          | 0          |   0.0 |  0.00
Other   |            | 0.002545   |            |       |  1.30

Nlocal:    84 ave 87 max 77 min
Histogram: 1 0 0 0 0 3 0 2 1 5
Nghost:    2602 ave 2639 max 2565 min
Histogram: 2 1 0 2 1 1 1 2 1 1
Neighs:    18606.9 ave 19325 max 16952 min
Histogram: 1 0 0 0 1 3 0 1 1 5

Total # of neighbors = 223283
Ave neighs/atom = 221.511
Neighbor list builds = 0
Dangerous builds = 0
CR_UPDATE- 23.300680	23.300680	23.300680	0.000000	0.000000	0.000000
For k = 5, applying strain of 1.00333
Changing box ...
  triclinic box = (-0.0388306 0 0) to (23.3395 23.3007 23.3007) with tilt (0 0 0)
WARNING: Resetting reneighboring criteria during minimization (../min.cpp:168)
Ewald initialization ...
  G vector (1/distance) = 0.365032
  estimated absolute RMS force accuracy = 1.95788e-05
  estimated relative force accuracy = 1.35968e-06
  KSpace vectors: actual max1d max3d = 2084 10 4630
                  kxmax kymax kzmax  = 10 10 10
Setting up cg style minimization ...
  Unit style: metal
Memory usage per processor = 4.56167 Mbytes
Step Temp E_pair E_mol TotEng Press 
      56           10   -18274.062            0    -18272.76   -14563.897 
      72           10   -18274.131            0   -18272.829   -12251.767 
Loop time of 0.232168 on 12 procs for 16 steps with 1008 atoms

99.9% CPU use with 12 MPI tasks x no OpenMP threads

Minimization stats:
  Stopping criterion = linesearch alpha is zero
  Energy initial, next-to-last, final = 
        -18274.0617656     -18274.1306041     -18274.1306041
  Force two-norm initial, final = 1.18327 0.121392
  Force max component initial, final = 0.102268 0.0106135
  Final line search alpha, max atom move = 4.76837e-07 5.06089e-09
  Iterations, force evaluations = 16 75

MPI task timing breakdown:
Section |  min time  |  avg time  |  max time  |%varavg| %total
---------------------------------------------------------------
Pair    | 0.07253    | 0.084124   | 0.090225   |   1.6 | 36.23
Kspace  | 0.12293    | 0.12889    | 0.1312     |   0.6 | 55.52
Neigh   | 0          | 0          | 0          |   0.0 |  0.00
Comm    | 0.010922   | 0.016187   | 0.025454   |   2.8 |  6.97
Output  | 0          | 0          | 0          |   0.0 |  0.00
Modify  | 0          | 0          | 0          |   0.0 |  0.00
Other   |            | 0.002964   |            |       |  1.28

Nlocal:    84 ave 87 max 77 min
Histogram: 1 0 0 0 0 3 0 2 1 5
Nghost:    2597.25 ave 2633 max 2563 min
Histogram: 2 0 1 2 1 2 0 2 1 1
Neighs:    18576.4 ave 19294 max 16920 min
Histogram: 1 0 0 0 1 3 0 1 1 5

Total # of neighbors = 222917
Ave neighs/atom = 221.148
Neighbor list builds = 0
Dangerous builds = 0
CR_UPDATE- 23.300680	23.300680	23.300680	0.000000	0.000000	0.000000
For k = 6, applying strain of 1.005
Changing box ...
  triclinic box = (-0.0582517 0 0) to (23.3589 23.3007 23.3007) with tilt (0 0 0)
WARNING: Resetting reneighboring criteria during minimization (../min.cpp:168)
Ewald initialization ...
  G vector (1/distance) = 0.365021
  estimated absolute RMS force accuracy = 1.96704e-05
  estimated relative force accuracy = 1.36604e-06
  KSpace vectors: actual max1d max3d = 2084 10 4630
                  kxmax kymax kzmax  = 10 10 10
Setting up cg style minimization ...
  Unit style: metal
Memory usage per processor = 4.56167 Mbytes
Step Temp E_pair E_mol TotEng Press 
      72           10   -18273.708            0   -18272.406   -17988.796 
      89           10   -18273.857            0   -18272.556    -14538.43 
Loop time of 0.234261 on 12 procs for 17 steps with 1008 atoms

99.8% CPU use with 12 MPI tasks x no OpenMP threads

Minimization stats:
  Stopping criterion = linesearch alpha is zero
  Energy initial, next-to-last, final = 
        -18273.7075919     -18273.8572606     -18273.8572606
  Force two-norm initial, final = 1.76459 0.151476
  Force max component initial, final = 0.151949 0.0185202
  Final line search alpha, max atom move = 4.76837e-07 8.83113e-09
  Iterations, force evaluations = 17 75

MPI task timing breakdown:
Section |  min time  |  avg time  |  max time  |%varavg| %total
---------------------------------------------------------------
Pair    | 0.074464   | 0.08566    | 0.09006    |   1.5 | 36.57
Kspace  | 0.12694    | 0.13115    | 0.13379    |   0.5 | 55.98
Neigh   | 0          | 0          | 0          |   0.0 |  0.00
Comm    | 0.011333   | 0.015055   | 0.023951   |   2.8 |  6.43
Output  | 0          | 0          | 0          |   0.0 |  0.00
Modify  | 0          | 0          | 0          |   0.0 |  0.00
Other   |            | 0.002398   |            |       |  1.02

Nlocal:    84 ave 87 max 77 min
Histogram: 1 0 0 0 0 3 0 2 1 5
Nghost:    2596.25 ave 2631 max 2563 min
Histogram: 2 0 1 2 1 2 1 1 1 1
Neighs:    18545.1 ave 19265 max 16887 min
Histogram: 1 0 0 0 1 3 0 1 1 5

Total # of neighbors = 222541
Ave neighs/atom = 220.775
Neighbor list builds = 0
Dangerous builds = 0
CR_UPDATE- 23.300680	23.300680	23.300680	0.000000	0.000000	0.000000
For k = 0, applying strain of 0.995
Changing box ...
  triclinic box = (0 0.0582517 0) to (23.3007 23.2424 23.3007) with tilt (0 0 0)
WARNING: Resetting reneighboring criteria during minimization (../min.cpp:168)
Ewald initialization ...
  G vector (1/distance) = 0.365089
  estimated absolute RMS force accuracy = 1.92191e-05
  estimated relative force accuracy = 1.33469e-06
  KSpace vectors: actual max1d max3d = 2088 10 4630
                  kxmax kymax kzmax  = 10 10 10
Setting up cg style minimization ...
  Unit style: metal
Memory usage per processor = 4.56167 Mbytes
Step Temp E_pair E_mol TotEng Press 
      89           10   -18274.552            0    -18273.25    3053.9974 
     100           10   -18274.683            0   -18273.381   -170.34371 
     114           10   -18274.691            0    -18273.39   -354.58535 
Loop time of 0.278968 on 12 procs for 25 steps with 1008 atoms

99.9% CPU use with 12 MPI tasks x no OpenMP threads

Minimization stats:
  Stopping criterion = linesearch alpha is zero
  Energy initial, next-to-last, final = 
        -18274.5518908     -18274.6913656     -18274.6913656
  Force two-norm initial, final = 1.75997 0.0933133
  Force max component initial, final = 0.167296 0.00828202
  Final line search alpha, max atom move = 9.53674e-07 7.89835e-09
  Iterations, force evaluations = 25 89

MPI task timing breakdown:
Section |  min time  |  avg time  |  max time  |%varavg| %total
---------------------------------------------------------------
Pair    | 0.089368   | 0.10063    | 0.10758    |   1.6 | 36.07
Kspace  | 0.14842    | 0.15353    | 0.15717    |   0.6 | 55.04
Neigh   | 0          | 0          | 0          |   0.0 |  0.00
Comm    | 0.014291   | 0.019861   | 0.030468   |   2.9 |  7.12
Output  | 3.5048e-05 | 3.7392e-05 | 4.1962e-05 |   0.0 |  0.01
Modify  | 0          | 0          | 0          |   0.0 |  0.00
Other   |            | 0.004903   |            |       |  1.76

Nlocal:    84 ave 87 max 77 min
Histogram: 1 0 0 0 0 3 0 2 1 5
Nghost:    2623.08 ave 2653 max 2587 min
Histogram: 2 0 2 0 1 1 1 1 2 2
Neighs:    18735.6 ave 19467 max 17070 min
Histogram: 1 0 0 0 1 3 1 1 0 5

Total # of neighbors = 224827
Ave neighs/atom = 223.043
Neighbor list builds = 0
Dangerous builds = 0
CR_UPDATE- 23.300680	23.300680	23.300680	0.000000	0.000000	0.000000
For k = 1, applying strain of 0.996667
Changing box ...
  triclinic box = (0 0.0388306 0) to (23.3007 23.2618 23.3007) with tilt (0 0 0)
WARNING: Resetting reneighboring criteria during minimization (../min.cpp:168)
Ewald initialization ...
  G vector (1/distance) = 0.365078
  estimated absolute RMS force accuracy = 1.92793e-05
  estimated relative force accuracy = 1.33888e-06
  KSpace vectors: actual max1d max3d = 2084 10 4630
                  kxmax kymax kzmax  = 10 10 10
Setting up cg style minimization ...
  Unit style: metal
Memory usage per processor = 4.56167 Mbytes
Step Temp E_pair E_mol TotEng Press 
     114           10   -18274.627            0   -18273.325   -537.56944 
     129           10   -18274.689            0   -18273.387    -2733.486 
Loop time of 0.221667 on 12 procs for 15 steps with 1008 atoms

99.9% CPU use with 12 MPI tasks x no OpenMP threads

Minimization stats:
  Stopping criterion = linesearch alpha is zero
  Energy initial, next-to-last, final = 
        -18274.6268812     -18274.6886221     -18274.6886221
  Force two-norm initial, final = 1.16618 0.118693
  Force max component initial, final = 0.110782 0.0115753
  Final line search alpha, max atom move = 4.76837e-07 5.51953e-09
  Iterations, force evaluations = 15 71

MPI task timing breakdown:
Section |  min time  |  avg time  |  max time  |%varavg| %total
---------------------------------------------------------------
Pair    | 0.070067   | 0.081413   | 0.085954   |   1.6 | 36.73
Kspace  | 0.11947    | 0.12336    | 0.12607    |   0.5 | 55.65
Neigh   | 0          | 0          | 0          |   0.0 |  0.00
Comm    | 0.01117    | 0.014607   | 0.022976   |   2.7 |  6.59
Output  | 0          | 0          | 0          |   0.0 |  0.00
Modify  | 0          | 0          | 0          |   0.0 |  0.00
Other   |            | 0.00229    |            |       |  1.03

Nlocal:    84 ave 87 max 77 min
Histogram: 1 0 0 0 0 3 0 2 1 5
Nghost:    2619.42 ave 2647 max 2582 min
Histogram: 1 1 2 0 1 0 1 2 2 2
Neighs:    18699.8 ave 19425 max 17042 min
Histogram: 1 0 0 0 1 3 1 0 1 5

Total # of neighbors = 224397
Ave neighs/atom = 222.616
Neighbor list builds = 0
Dangerous builds = 0
CR_UPDATE- 23.300680	23.300680	23.300680	0.000000	0.000000	0.000000
For k = 2, applying strain of 0.998333
Changing box ...
  triclinic box = (0 0.0194211 0) to (23.3007 23.2813 23.3007) with tilt (0 0 0)
WARNING: Resetting reneighboring criteria during minimization (../min.cpp:168)
Ewald initialization ...
  G vector (1/distance) = 0.365066
  estimated absolute RMS force accuracy = 1.9345e-05
  estimated relative force accuracy = 1.34344e-06
  KSpace vectors: actual max1d max3d = 2084 10 4630
                  kxmax kymax kzmax  = 10 10 10
Setting up cg style minimization ...
  Unit style: metal
Memory usage per processor = 4.56167 Mbytes
Step Temp E_pair E_mol TotEng Press 
     129           10   -18274.617            0   -18273.315   -4089.1497 
     138           10   -18274.632            0    -18273.33   -5106.7761 
Loop time of 0.177803 on 12 procs for 9 steps with 1008 atoms

99.8% CPU use with 12 MPI tasks x no OpenMP threads

Minimization stats:
  Stopping criterion = linesearch alpha is zero
  Energy initial, next-to-last, final = 
        -18274.6167975     -18274.6317997     -18274.6317997
  Force two-norm initial, final = 0.579316 0.108744
  Force max component initial, final = 0.0550301 0.0105851
  Final line search alpha, max atom move = 9.53674e-07 1.00948e-08
  Iterations, force evaluations = 9 57

MPI task timing breakdown:
Section |  min time  |  avg time  |  max time  |%varavg| %total
---------------------------------------------------------------
Pair    | 0.056027   | 0.064224   | 0.068799   |   1.3 | 36.12
Kspace  | 0.094359   | 0.097934   | 0.10054    |   0.5 | 55.08
Neigh   | 0          | 0          | 0          |   0.0 |  0.00
Comm    | 0.0091577  | 0.012765   | 0.019707   |   2.3 |  7.18
Output  | 0          | 0          | 0          |   0.0 |  0.00
Modify  | 0          | 0          | 0          |   0.0 |  0.00
Other   |            | 0.00288    |            |       |  1.62

Nlocal:    84 ave 87 max 77 min
Histogram: 1 0 0 0 0 3 0 2 1 5
Nghost:    2612 ave 2643 max 2578 min
Histogram: 2 0 2 0 1 2 1 1 2 1
Neighs:    18670.7 ave 19400 max 17011 min
Histogram: 1 0 0 0 1 3 1 1 0 5

Total # of neighbors = 224048
Ave neighs/atom = 222.27
Neighbor list builds = 0
Dangerous builds = 0
CR_UPDATE- 23.300680	23.300680	23.300680	0.000000	0.000000	0.000000
For k = 3, applying strain of 1
Changing box ...
  triclinic box = (0 0 0) to (23.3007 23.3007 23.3007) with tilt (0 0 0)
WARNING: Resetting reneighboring criteria during minimization (../min.cpp:168)
Ewald initialization ...
  G vector (1/distance) = 0.365055
  estimated absolute RMS force accuracy = 1.94166e-05
  estimated relative force accuracy = 1.34841e-06
  KSpace vectors: actual max1d max3d = 2084 10 4630
                  kxmax kymax kzmax  = 10 10 10
Setting up cg style minimization ...
  Unit style: metal
Memory usage per processor = 4.56167 Mbytes
Step Temp E_pair E_mol TotEng Press 
     138           10   -18274.524            0   -18273.222   -7605.4286 
     139           10   -18274.524            0   -18273.222   -7605.4286 
Loop time of 0.0733688 on 12 procs for 1 steps with 1008 atoms

99.4% CPU use with 12 MPI tasks x no OpenMP threads

Minimization stats:
  Stopping criterion = linesearch alpha is zero
  Energy initial, next-to-last, final = 
        -18274.5239888     -18274.5239888     -18274.5239888
  Force two-norm initial, final = 0.00471233 0.00471233
  Force max component initial, final = 0.000334354 0.000334354
  Final line search alpha, max atom move = 0.000488281 1.63259e-07
  Iterations, force evaluations = 1 23

MPI task timing breakdown:
Section |  min time  |  avg time  |  max time  |%varavg| %total
---------------------------------------------------------------
Pair    | 0.023358   | 0.026851   | 0.028725   |   0.9 | 36.60
Kspace  | 0.039096   | 0.040766   | 0.041646   |   0.3 | 55.56
Neigh   | 0          | 0          | 0          |   0.0 |  0.00
Comm    | 0.0035474  | 0.0048754  | 0.0075169  |   1.5 |  6.65
Output  | 0          | 0          | 0          |   0.0 |  0.00
Modify  | 0          | 0          | 0          |   0.0 |  0.00
Other   |            | 0.0008759  |            |       |  1.19

Nlocal:    84 ave 87 max 77 min
Histogram: 1 0 0 0 0 3 0 2 1 5
Nghost:    2608.25 ave 2643 max 2575 min
Histogram: 2 1 1 0 3 1 0 2 1 1
Neighs:    18639.8 ave 19374 max 16978 min
Histogram: 1 0 0 0 1 3 1 1 0 5

Total # of neighbors = 223678
Ave neighs/atom = 221.903
Neighbor list builds = 0
Dangerous builds = 0
CR_UPDATE- 23.300680	23.300680	23.300680	0.000000	0.000000	0.000000
For k = 4, applying strain of 1.00167
Changing box ...
  triclinic box = (0 -0.0194211 0) to (23.3007 23.3201 23.3007) with tilt (0 0 0)
WARNING: Resetting reneighboring criteria during minimization (../min.cpp:168)
Ewald initialization ...
  G vector (1/distance) = 0.365044
  estimated absolute RMS force accuracy = 1.94944e-05
  estimated relative force accuracy = 1.35381e-06
  KSpace vectors: actual max1d max3d = 2084 10 4630
                  kxmax kymax kzmax  = 10 10 10
Setting up cg style minimization ...
  Unit style: metal
Memory usage per processor = 4.56167 Mbytes
Step Temp E_pair E_mol TotEng Press 
     139           10   -18274.345            0   -18273.044    -11083.71 
     150           10   -18274.361            0   -18273.059   -10022.263 
     153           10   -18274.361            0    -18273.06    -9998.217 
Loop time of 0.307239 on 12 procs for 14 steps with 1008 atoms

99.8% CPU use with 12 MPI tasks x no OpenMP threads

Minimization stats:
  Stopping criterion = linesearch alpha is zero
  Energy initial, next-to-last, final = 
        -18274.3452464     -18274.3614054     -18274.3614054
  Force two-norm initial, final = 0.575893 0.0634668
  Force max component initial, final = 0.0541542 0.00521489
  Final line search alpha, max atom move = 1.90735e-06 9.94661e-09
  Iterations, force evaluations = 14 99

MPI task timing breakdown:
Section |  min time  |  avg time  |  max time  |%varavg| %total
---------------------------------------------------------------
Pair    | 0.097333   | 0.11156    | 0.11928    |   1.7 | 36.31
Kspace  | 0.16542    | 0.17054    | 0.1739     |   0.6 | 55.51
Neigh   | 0          | 0          | 0          |   0.0 |  0.00
Comm    | 0.015264   | 0.021503   | 0.032053   |   3.0 |  7.00
Output  | 3.5048e-05 | 3.6637e-05 | 3.8862e-05 |   0.0 |  0.01
Modify  | 0          | 0          | 0          |   0.0 |  0.00
Other   |            | 0.003605   |            |       |  1.17

Nlocal:    84 ave 87 max 77 min
Histogram: 1 0 0 0 0 3 0 2 1 5
Nghost:    2604.25 ave 2638 max 2572 min
Histogram: 2 0 2 0 2 1 1 2 1 1
Neighs:    18607.2 ave 19344 max 16955 min
Histogram: 1 0 0 0 1 3 1 1 0 5

Total # of neighbors = 223286
Ave neighs/atom = 221.514
Neighbor list builds = 0
Dangerous builds = 0
CR_UPDATE- 23.300680	23.300680	23.300680	0.000000	0.000000	0.000000
For k = 5, applying strain of 1.00333
Changing box ...
  triclinic box = (0 -0.0388306 0) to (23.3007 23.3395 23.3007) with tilt (0 0 0)
WARNING: Resetting reneighboring criteria during minimization (../min.cpp:168)
Ewald initialization ...
  G vector (1/distance) = 0.365032
  estimated absolute RMS force accuracy = 1.95788e-05
  estimated relative force accuracy = 1.35968e-06
  KSpace vectors: actual max1d max3d = 2084 10 4630
                  kxmax kymax kzmax  = 10 10 10
Setting up cg style minimization ...
  Unit style: metal
Memory usage per processor = 4.56167 Mbytes
Step Temp E_pair E_mol TotEng Press 
     153           10   -18274.089            0   -18272.788   -14524.218 
     166           10   -18274.146            0   -18272.845   -12394.278 
Loop time of 0.204865 on 12 procs for 13 steps with 1008 atoms

99.9% CPU use with 12 MPI tasks x no OpenMP threads

Minimization stats:
  Stopping criterion = linesearch alpha is zero
  Energy initial, next-to-last, final = 
        -18274.0893015     -18274.1463923     -18274.1463923
  Force two-norm initial, final = 1.14361 0.143524
  Force max component initial, final = 0.10762 0.018326
  Final line search alpha, max atom move = 4.76837e-07 8.73852e-09
  Iterations, force evaluations = 13 67

MPI task timing breakdown:
Section |  min time  |  avg time  |  max time  |%varavg| %total
---------------------------------------------------------------
Pair    | 0.065779   | 0.075487   | 0.080786   |   1.5 | 36.85
Kspace  | 0.11071    | 0.11441    | 0.11648    |   0.5 | 55.85
Neigh   | 0          | 0          | 0          |   0.0 |  0.00
Comm    | 0.0083911  | 0.012872   | 0.020254   |   2.7 |  6.28
Output  | 0          | 0          | 0          |   0.0 |  0.00
Modify  | 0          | 0          | 0          |   0.0 |  0.00
Other   |            | 0.002093   |            |       |  1.02

Nlocal:    84 ave 87 max 77 min
Histogram: 1 0 0 0 0 3 0 2 1 5
Nghost:    2602.25 ave 2636 max 2571 min
Histogram: 2 1 1 0 2 1 1 2 1 1
Neighs:    18580.2 ave 19318 max 16940 min
Histogram: 1 0 0 0 1 3 1 1 1 4

Total # of neighbors = 222962
Ave neighs/atom = 221.192
Neighbor list builds = 0
Dangerous builds = 0
CR_UPDATE- 23.300680	23.300680	23.300680	0.000000	0.000000	0.000000
For k = 6, applying strain of 1.005
Changing box ...
  triclinic box = (0 -0.0582517 0) to (23.3007 23.3589 23.3007) with tilt (0 0 0)
WARNING: Resetting reneighboring criteria during minimization (../min.cpp:168)
Ewald initialization ...
  G vector (1/distance) = 0.365021
  estimated absolute RMS force accuracy = 1.96704e-05
  estimated relative force accuracy = 1.36604e-06
  KSpace vectors: actual max1d max3d = 2084 10 4630
                  kxmax kymax kzmax  = 10 10 10
Setting up cg style minimization ...
  Unit style: metal
Memory usage per processor = 4.56167 Mbytes
Step Temp E_pair E_mol TotEng Press 
     166           10   -18273.751            0   -18272.449   -17930.021 
     185           10   -18273.883            0   -18272.581   -14654.558 
Loop time of 0.357145 on 12 procs for 19 steps with 1008 atoms

99.8% CPU use with 12 MPI tasks x no OpenMP threads

Minimization stats:
  Stopping criterion = linesearch alpha is zero
  Energy initial, next-to-last, final = 
        -18273.7509548     -18273.8826185     -18273.8826185
  Force two-norm initial, final = 1.70559 0.113315
  Force max component initial, final = 0.160521 0.00966854
  Final line search alpha, max atom move = 4.76837e-07 4.61032e-09
  Iterations, force evaluations = 19 115

MPI task timing breakdown:
Section |  min time  |  avg time  |  max time  |%varavg| %total
---------------------------------------------------------------
Pair    | 0.11212    | 0.1285     | 0.13743    |   1.8 | 35.98
Kspace  | 0.19032    | 0.19697    | 0.20088    |   0.6 | 55.15
Neigh   | 0          | 0          | 0          |   0.0 |  0.00
Comm    | 0.020264   | 0.027517   | 0.04058    |   3.2 |  7.70
Output  | 0          | 0          | 0          |   0.0 |  0.00
Modify  | 0          | 0          | 0          |   0.0 |  0.00
Other   |            | 0.004163   |            |       |  1.17

Nlocal:    84 ave 87 max 77 min
Histogram: 1 0 0 0 0 3 0 2 1 5
Nghost:    2596.5 ave 2631 max 2559 min
Histogram: 1 1 2 0 1 2 1 1 2 1
Neighs:    18547.6 ave 19277 max 16909 min
Histogram: 1 0 0 0 1 3 1 1 0 5

Total # of neighbors = 222571
Ave neighs/atom = 220.805
Neighbor list builds = 0
Dangerous builds = 0
CR_UPDATE- 23.300680	23.300680	23.300680	0.000000	0.000000	0.000000
For k = 0, applying strain of 0.995
Changing box ...
  triclinic box = (0 0 0.0582517) to (23.3007 23.3007 23.2424) with tilt (0 0 0)
WARNING: Resetting reneighboring criteria during minimization (../min.cpp:168)
Ewald initialization ...
  G vector (1/distance) = 0.365089
  estimated absolute RMS force accuracy = 1.92191e-05
  estimated relative force accuracy = 1.33469e-06
  KSpace vectors: actual max1d max3d = 2088 10 4630
                  kxmax kymax kzmax  = 10 10 10
Setting up cg style minimization ...
  Unit style: metal
Memory usage per processor = 4.56167 Mbytes
Step Temp E_pair E_mol TotEng Press 
     185           10   -18274.493            0   -18273.191    2892.5916 
     200           10   -18274.644            0   -18273.343   -679.21241 
     203           10   -18274.646            0   -18273.344   -720.74851 
Loop time of 0.244169 on 12 procs for 18 steps with 1008 atoms

99.9% CPU use with 12 MPI tasks x no OpenMP threads

Minimization stats:
  Stopping criterion = linesearch alpha is zero
  Energy initial, next-to-last, final = 
        -18274.4926731     -18274.6458768     -18274.6458768
  Force two-norm initial, final = 1.89771 0.165987
  Force max component initial, final = 0.164542 0.0152434
  Final line search alpha, max atom move = 2.38419e-07 3.6343e-09
  Iterations, force evaluations = 18 79

MPI task timing breakdown:
Section |  min time  |  avg time  |  max time  |%varavg| %total
---------------------------------------------------------------
Pair    | 0.078775   | 0.089641   | 0.095651   |   1.5 | 36.71
Kspace  | 0.13268    | 0.13623    | 0.1387     |   0.4 | 55.79
Neigh   | 0          | 0          | 0          |   0.0 |  0.00
Comm    | 0.010522   | 0.015667   | 0.023665   |   2.7 |  6.42
Output  | 3.5048e-05 | 3.6418e-05 | 3.9101e-05 |   0.0 |  0.01
Modify  | 0          | 0          | 0          |   0.0 |  0.00
Other   |            | 0.002596   |            |       |  1.06

Nlocal:    84 ave 87 max 77 min
Histogram: 1 0 0 0 0 3 0 2 1 5
Nghost:    2619.5 ave 2647 max 2592 min
Histogram: 2 1 1 2 0 1 2 0 0 3
Neighs:    18732.8 ave 19455 max 17082 min
Histogram: 1 0 0 0 1 2 2 1 0 5

Total # of neighbors = 224793
Ave neighs/atom = 223.009
Neighbor list builds = 0
Dangerous builds = 0
CR_UPDATE- 23.300680	23.300680	23.300680	0.000000	0.000000	0.000000
For k = 1, applying strain of 0.996667
Changing box ...
  triclinic box = (0 0 0.0388306) to (23.3007 23.3007 23.2618) with tilt (0 0 0)
WARNING: Resetting reneighboring criteria during minimization (../min.cpp:168)
Ewald initialization ...
  G vector (1/distance) = 0.365078
  estimated absolute RMS force accuracy = 1.92793e-05
  estimated relative force accuracy = 1.33888e-06
  KSpace vectors: actual max1d max3d = 2084 10 4630
                  kxmax kymax kzmax  = 10 10 10
Setting up cg style minimization ...
  Unit style: metal
Memory usage per processor = 4.56167 Mbytes
Step Temp E_pair E_mol TotEng Press 
     203           10   -18274.586            0   -18273.284   -644.32472 
     224           10   -18274.655            0   -18273.353   -3052.2653 
Loop time of 0.471119 on 12 procs for 21 steps with 1008 atoms

99.9% CPU use with 12 MPI tasks x no OpenMP threads

Minimization stats:
  Stopping criterion = linesearch alpha is zero
  Energy initial, next-to-last, final = 
        -18274.5857143     -18274.6545014     -18274.6545014
  Force two-norm initial, final = 1.25747 0.0966131
  Force max component initial, final = 0.10876 0.00884598
  Final line search alpha, max atom move = 9.53674e-07 8.43619e-09
  Iterations, force evaluations = 21 155

MPI task timing breakdown:
Section |  min time  |  avg time  |  max time  |%varavg| %total
---------------------------------------------------------------
Pair    | 0.15004    | 0.17258    | 0.18493    |   2.2 | 36.63
Kspace  | 0.25406    | 0.26316    | 0.2681     |   0.7 | 55.86
Neigh   | 0          | 0          | 0          |   0.0 |  0.00
Comm    | 0.020852   | 0.030706   | 0.047713   |   3.9 |  6.52
Output  | 0          | 0          | 0          |   0.0 |  0.00
Modify  | 0          | 0          | 0          |   0.0 |  0.00
Other   |            | 0.004676   |            |       |  0.99

Nlocal:    84 ave 87 max 77 min
Histogram: 1 0 0 0 0 3 0 2 1 5
Nghost:    2616.5 ave 2647 max 2589 min
Histogram: 2 1 1 1 2 1 1 0 1 2
Neighs:    18701.7 ave 19422 max 17048 min
Histogram: 1 0 0 0 1 2 1 1 1 5

Total # of neighbors = 224420
Ave neighs/atom = 222.639
Neighbor list builds = 0
Dangerous builds = 0
CR_UPDATE- 23.300680	23.300680	23.300680	0.000000	0.000000	0.000000
For k = 2, applying strain of 0.998333
Changing box ...
  triclinic box = (0 0 0.0194211) to (23.3007 23.3007 23.2813) with tilt (0 0 0)
WARNING: Resetting reneighboring criteria during minimization (../min.cpp:168)
Ewald initialization ...
  G vector (1/distance) = 0.365066
  estimated absolute RMS force accuracy = 1.9345e-05
  estimated relative force accuracy = 1.34344e-06
  KSpace vectors: actual max1d max3d = 2084 10 4630
                  kxmax kymax kzmax  = 10 10 10
Setting up cg style minimization ...
  Unit style: metal
Memory usage per processor = 4.56167 Mbytes
Step Temp E_pair E_mol TotEng Press 
     224           10   -18274.596            0   -18273.294    -4142.219 
     232           10   -18274.611            0    -18273.31   -5187.7574 
Loop time of 0.179071 on 12 procs for 8 steps with 1008 atoms

100.0% CPU use with 12 MPI tasks x no OpenMP threads

Minimization stats:
  Stopping criterion = linesearch alpha is zero
  Energy initial, next-to-last, final = 
        -18274.5959672      -18274.611273      -18274.611273
  Force two-norm initial, final = 0.624759 0.134359
  Force max component initial, final = 0.0538683 0.0123971
  Final line search alpha, max atom move = 4.76837e-07 5.91138e-09
  Iterations, force evaluations = 8 57

MPI task timing breakdown:
Section |  min time  |  avg time  |  max time  |%varavg| %total
---------------------------------------------------------------
Pair    | 0.058139   | 0.065774   | 0.070018   |   1.2 | 36.73
Kspace  | 0.096073   | 0.09912    | 0.10013    |   0.4 | 55.35
Neigh   | 0          | 0          | 0          |   0.0 |  0.00
Comm    | 0.0080974  | 0.012126   | 0.018562   |   2.4 |  6.77
Output  | 0          | 0          | 0          |   0.0 |  0.00
Modify  | 0          | 0          | 0          |   0.0 |  0.00
Other   |            | 0.00205    |            |       |  1.14

Nlocal:    84 ave 87 max 77 min
Histogram: 1 0 0 0 0 3 0 2 1 5
Nghost:    2612 ave 2643 max 2581 min
Histogram: 2 0 1 1 3 0 2 0 1 2
Neighs:    18669.6 ave 19401 max 17015 min
Histogram: 1 0 0 0 1 3 1 1 0 5

Total # of neighbors = 224035
Ave neighs/atom = 222.257
Neighbor list builds = 0
Dangerous builds = 0
CR_UPDATE- 23.300680	23.300680	23.300680	0.000000	0.000000	0.000000
For k = 3, applying strain of 1
Changing box ...
  triclinic box = (0 0 0) to (23.3007 23.3007 23.3007) with tilt (0 0 0)
WARNING: Resetting reneighboring criteria during minimization (../min.cpp:168)
Ewald initialization ...
  G vector (1/distance) = 0.365055
  estimated absolute RMS force accuracy = 1.94166e-05
  estimated relative force accuracy = 1.34841e-06
  KSpace vectors: actual max1d max3d = 2084 10 4630
                  kxmax kymax kzmax  = 10 10 10
Setting up cg style minimization ...
  Unit style: metal
Memory usage per processor = 4.56167 Mbytes
Step Temp E_pair E_mol TotEng Press 
     232           10   -18274.524            0   -18273.222   -7605.4286 
     233           10   -18274.524            0   -18273.222   -7605.4286 
Loop time of 0.0716378 on 12 procs for 1 steps with 1008 atoms

99.7% CPU use with 12 MPI tasks x no OpenMP threads

Minimization stats:
  Stopping criterion = linesearch alpha is zero
  Energy initial, next-to-last, final = 
        -18274.5239888     -18274.5239888     -18274.5239888
  Force two-norm initial, final = 0.00471233 0.00471233
  Force max component initial, final = 0.000334354 0.000334354
  Final line search alpha, max atom move = 0.000488281 1.63259e-07
  Iterations, force evaluations = 1 23

MPI task timing breakdown:
Section |  min time  |  avg time  |  max time  |%varavg| %total
---------------------------------------------------------------
Pair    | 0.023816   | 0.026644   | 0.02812    |   0.7 | 37.19
Kspace  | 0.038835   | 0.039868   | 0.040516   |   0.2 | 55.65
Neigh   | 0          | 0          | 0          |   0.0 |  0.00
Comm    | 0.0032291  | 0.0044596  | 0.0067348  |   1.4 |  6.23
Output  | 0          | 0          | 0          |   0.0 |  0.00
Modify  | 0          | 0          | 0          |   0.0 |  0.00
Other   |            | 0.0006665  |            |       |  0.93

Nlocal:    84 ave 87 max 77 min
Histogram: 1 0 0 0 0 3 0 2 1 5
Nghost:    2608.25 ave 2643 max 2575 min
Histogram: 2 1 1 0 3 1 0 2 1 1
Neighs:    18639.8 ave 19374 max 16978 min
Histogram: 1 0 0 0 1 3 1 1 0 5

Total # of neighbors = 223678
Ave neighs/atom = 221.903
Neighbor list builds = 0
Dangerous builds = 0
CR_UPDATE- 23.300680	23.300680	23.300680	0.000000	0.000000	0.000000
For k = 4, applying strain of 1.00167
Changing box ...
  triclinic box = (0 0 -0.0194211) to (23.3007 23.3007 23.3201) with tilt (0 0 0)
WARNING: Resetting reneighboring criteria during minimization (../min.cpp:168)
Ewald initialization ...
  G vector (1/distance) = 0.365044
  estimated absolute RMS force accuracy = 1.94944e-05
  estimated relative force accuracy = 1.35381e-06
  KSpace vectors: actual max1d max3d = 2084 10 4630
                  kxmax kymax kzmax  = 10 10 10
Setting up cg style minimization ...
  Unit style: metal
Memory usage per processor = 4.56167 Mbytes
Step Temp E_pair E_mol TotEng Press 
     233           10   -18274.371            0   -18273.069   -11032.347 
     244           10   -18274.387            0   -18273.085   -9913.6659 
Loop time of 0.195676 on 12 procs for 11 steps with 1008 atoms

99.8% CPU use with 12 MPI tasks x no OpenMP threads

Minimization stats:
  Stopping criterion = linesearch alpha is zero
  Energy initial, next-to-last, final = 
        -18274.3708423     -18274.3870656     -18274.3870656
  Force two-norm initial, final = 0.620813 0.0946484
  Force max component initial, final = 0.0533719 0.00871581
  Final line search alpha, max atom move = 9.53674e-07 8.31204e-09
  Iterations, force evaluations = 11 61

MPI task timing breakdown:
Section |  min time  |  avg time  |  max time  |%varavg| %total
---------------------------------------------------------------
Pair    | 0.064516   | 0.071959   | 0.076311   |   1.2 | 36.77
Kspace  | 0.1057     | 0.10809    | 0.1095     |   0.3 | 55.24
Neigh   | 0          | 0          | 0          |   0.0 |  0.00
Comm    | 0.009558   | 0.013422   | 0.019438   |   2.2 |  6.86
Output  | 0          | 0          | 0          |   0.0 |  0.00
Modify  | 0          | 0          | 0          |   0.0 |  0.00
Other   |            | 0.002208   |            |       |  1.13

Nlocal:    84 ave 87 max 77 min
Histogram: 1 0 0 0 0 3 0 2 1 5
Nghost:    2605.5 ave 2640 max 2571 min
Histogram: 2 0 1 1 3 1 1 0 2 1
Neighs:    18605.7 ave 19328 max 16955 min
Histogram: 1 0 0 0 1 3 1 0 1 5

Total # of neighbors = 223268
Ave neighs/atom = 221.496
Neighbor list builds = 0
Dangerous builds = 0
CR_UPDATE- 23.300680	23.300680	23.300680	0.000000	0.000000	0.000000
For k = 5, applying strain of 1.00333
Changing box ...
  triclinic box = (0 0 -0.0388306) to (23.3007 23.3007 23.3395) with tilt (0 0 0)
WARNING: Resetting reneighboring criteria during minimization (../min.cpp:168)
Ewald initialization ...
  G vector (1/distance) = 0.365032
  estimated absolute RMS force accuracy = 1.95788e-05
  estimated relative force accuracy = 1.35968e-06
  KSpace vectors: actual max1d max3d = 2084 10 4630
                  kxmax kymax kzmax  = 10 10 10
Setting up cg style minimization ...
  Unit style: metal
Memory usage per processor = 4.56167 Mbytes
Step Temp E_pair E_mol TotEng Press 
     244           10   -18274.137            0   -18272.835   -14420.992 
     250           10    -18274.19            0   -18272.889   -12426.394 
     256           10   -18274.199            0   -18272.897   -12171.123 
Loop time of 0.225786 on 12 procs for 12 steps with 1008 atoms

99.9% CPU use with 12 MPI tasks x no OpenMP threads

Minimization stats:
  Stopping criterion = linesearch alpha is zero
  Energy initial, next-to-last, final = 
        -18274.1365161     -18274.1990263     -18274.1990263
  Force two-norm initial, final = 1.233 0.172814
  Force max component initial, final = 0.105709 0.014155
  Final line search alpha, max atom move = 2.38419e-07 3.37482e-09
  Iterations, force evaluations = 12 69

MPI task timing breakdown:
Section |  min time  |  avg time  |  max time  |%varavg| %total
---------------------------------------------------------------
Pair    | 0.067626   | 0.077758   | 0.083082   |   1.5 | 34.44
Kspace  | 0.1165     | 0.1235     | 0.12687    |   0.8 | 54.70
Neigh   | 0          | 0          | 0          |   0.0 |  0.00
Comm    | 0.014718   | 0.020001   | 0.031563   |   3.0 |  8.86
Output  | 3.6955e-05 | 3.8922e-05 | 4.6015e-05 |   0.0 |  0.02
Modify  | 0          | 0          | 0          |   0.0 |  0.00
Other   |            | 0.00449    |            |       |  1.99

Nlocal:    84 ave 87 max 77 min
Histogram: 1 0 0 0 0 3 0 2 1 5
Nghost:    2602.75 ave 2639 max 2569 min
Histogram: 2 0 1 1 3 1 1 1 1 1
Neighs:    18575.1 ave 19303 max 16927 min
Histogram: 1 0 0 0 1 3 1 1 0 5

Total # of neighbors = 222901
Ave neighs/atom = 221.132
Neighbor list builds = 0
Dangerous builds = 0
CR_UPDATE- 23.300680	23.300680	23.300680	0.000000	0.000000	0.000000
For k = 6, applying strain of 1.005
Changing box ...
  triclinic box = (0 0 -0.0582517) to (23.3007 23.3007 23.3589) with tilt (0 0 0)
WARNING: Resetting reneighboring criteria during minimization (../min.cpp:168)
Ewald initialization ...
  G vector (1/distance) = 0.365021
  estimated absolute RMS force accuracy = 1.96704e-05
  estimated relative force accuracy = 1.36604e-06
  KSpace vectors: actual max1d max3d = 2084 10 4630
                  kxmax kymax kzmax  = 10 10 10
Setting up cg style minimization ...
  Unit style: metal
Memory usage per processor = 4.56167 Mbytes
Step Temp E_pair E_mol TotEng Press 
     256           10   -18273.822            0    -18272.52   -17775.922 
     289           10   -18273.977            0   -18272.675   -14119.377 
Loop time of 0.550601 on 12 procs for 33 steps with 1008 atoms

99.9% CPU use with 12 MPI tasks x no OpenMP threads

Minimization stats:
  Stopping criterion = linesearch alpha is zero
  Energy initial, next-to-last, final = 
        -18273.8219548     -18273.9771279     -18273.9771279
  Force two-norm initial, final = 1.83898 0.107227
  Force max component initial, final = 0.15725 0.0080643
  Final line search alpha, max atom move = 9.53674e-07 7.69071e-09
  Iterations, force evaluations = 33 183

MPI task timing breakdown:
Section |  min time  |  avg time  |  max time  |%varavg| %total
---------------------------------------------------------------
Pair    | 0.17535    | 0.20213    | 0.21582    |   2.4 | 36.71
Kspace  | 0.30103    | 0.30954    | 0.31577    |   0.7 | 56.22
Neigh   | 0          | 0          | 0          |   0.0 |  0.00
Comm    | 0.021741   | 0.033999   | 0.053884   |   4.4 |  6.17
Output  | 0          | 0          | 0          |   0.0 |  0.00
Modify  | 0          | 0          | 0          |   0.0 |  0.00
Other   |            | 0.004931   |            |       |  0.90

Nlocal:    84 ave 87 max 77 min
Histogram: 1 0 0 0 0 3 0 2 1 5
Nghost:    2599.25 ave 2632 max 2569 min
Histogram: 2 0 1 2 1 3 0 0 2 1
Neighs:    18544.8 ave 19271 max 16894 min
Histogram: 1 0 0 0 1 3 1 1 0 5

Total # of neighbors = 222538
Ave neighs/atom = 220.772
Neighbor list builds = 0
Dangerous builds = 0
CR_UPDATE- 23.300680	23.300680	23.300680	0.000000	0.000000	0.000000
For k = 0, applying strain of 0.995
Changing box ...
  triclinic box = (0 0 0) to (23.3007 23.3007 23.3007) with tilt (-0.116503 0 0)
WARNING: Resetting reneighboring criteria during minimization (../min.cpp:168)
Ewald initialization ...
  G vector (1/distance) = 0.365055
  estimated absolute RMS force accuracy = 1.94166e-05
  estimated relative force accuracy = 1.34841e-06
  KSpace vectors: actual max1d max3d = 2079 10 4630
                  kxmax kymax kzmax  = 10 10 10
Setting up cg style minimization ...
  Unit style: metal
Memory usage per processor = 4.56167 Mbytes
Step Temp E_pair E_mol TotEng Press 
     289           10   -18274.321            0   -18273.019   -7578.2689 
     300           10   -18274.376            0   -18273.075    -7578.348 
     302           10   -18274.378            0   -18273.076   -7578.3555 
Loop time of 0.20288 on 12 procs for 13 steps with 1008 atoms

99.8% CPU use with 12 MPI tasks x no OpenMP threads

Minimization stats:
  Stopping criterion = linesearch alpha is zero
  Energy initial, next-to-last, final = 
        -18274.3206083     -18274.3778923     -18274.3778923
  Force two-norm initial, final = 1.20955 0.150167
  Force max component initial, final = 0.126523 0.0130967
  Final line search alpha, max atom move = 4.76837e-07 6.24497e-09
  Iterations, force evaluations = 13 67

MPI task timing breakdown:
Section |  min time  |  avg time  |  max time  |%varavg| %total
---------------------------------------------------------------
Pair    | 0.067525   | 0.075123   | 0.079943   |   1.3 | 37.03
Kspace  | 0.11076    | 0.11334    | 0.11516    |   0.4 | 55.87
Neigh   | 0          | 0          | 0          |   0.0 |  0.00
Comm    | 0.008245   | 0.012472   | 0.018791   |   2.5 |  6.15
Output  | 3.3855e-05 | 3.6438e-05 | 4.0054e-05 |   0.0 |  0.02
Modify  | 0          | 0          | 0          |   0.0 |  0.00
Other   |            | 0.001903   |            |       |  0.94

Nlocal:    84 ave 87 max 77 min
Histogram: 1 0 0 0 0 3 0 2 1 5
Nghost:    2608.25 ave 2643 max 2575 min
Histogram: 2 1 1 0 3 1 0 2 1 1
Neighs:    18643.1 ave 19359 max 16984 min
Histogram: 1 0 0 0 1 3 1 0 1 5

Total # of neighbors = 223717
Ave neighs/atom = 221.941
Neighbor list builds = 0
Dangerous builds = 0
CR_UPDATE- 23.300680	23.300680	23.300680	0.000000	0.000000	0.000000
For k = 1, applying strain of 0.996667
Changing box ...
  triclinic box = (0 0 0) to (23.3007 23.3007 23.3007) with tilt (-0.077661 0 0)
WARNING: Resetting reneighboring criteria during minimization (../min.cpp:168)
Ewald initialization ...
  G vector (1/distance) = 0.365055
  estimated absolute RMS force accuracy = 1.94166e-05
  estimated relative force accuracy = 1.34841e-06
  KSpace vectors: actual max1d max3d = 2081 10 4630
                  kxmax kymax kzmax  = 10 10 10
Setting up cg style minimization ...
  Unit style: metal
Memory usage per processor = 4.56167 Mbytes
Step Temp E_pair E_mol TotEng Press 
     302           10   -18274.416            0   -18273.114   -7591.8503 
     318           10   -18274.446            0   -18273.144   -7587.6975 
Loop time of 0.215928 on 12 procs for 16 steps with 1008 atoms

99.8% CPU use with 12 MPI tasks x no OpenMP threads

Minimization stats:
  Stopping criterion = linesearch alpha is zero
  Energy initial, next-to-last, final = 
        -18274.4158721     -18274.4455833     -18274.4455833
  Force two-norm initial, final = 0.806292 0.0842092
  Force max component initial, final = 0.0842624 0.00716359
  Final line search alpha, max atom move = 9.53674e-07 6.83173e-09
  Iterations, force evaluations = 16 71

MPI task timing breakdown:
Section |  min time  |  avg time  |  max time  |%varavg| %total
---------------------------------------------------------------
Pair    | 0.069699   | 0.079425   | 0.0856     |   1.5 | 36.78
Kspace  | 0.11826    | 0.12121    | 0.1232     |   0.4 | 56.14
Neigh   | 0          | 0          | 0          |   0.0 |  0.00
Comm    | 0.0081601  | 0.013243   | 0.021297   |   2.9 |  6.13
Output  | 0          | 0          | 0          |   0.0 |  0.00
Modify  | 0          | 0          | 0          |   0.0 |  0.00
Other   |            | 0.002046   |            |       |  0.95

Nlocal:    84 ave 87 max 77 min
Histogram: 1 0 0 0 0 3 0 2 1 5
Nghost:    2608.25 ave 2643 max 2575 min
Histogram: 2 1 1 0 3 1 0 2 1 1
Neighs:    18642.1 ave 19358 max 16984 min
Histogram: 1 0 0 0 1 3 0 1 1 5

Total # of neighbors = 223705
Ave neighs/atom = 221.93
Neighbor list builds = 0
Dangerous builds = 0
CR_UPDATE- 23.300680	23.300680	23.300680	0.000000	0.000000	0.000000
For k = 2, applying strain of 0.998333
Changing box ...
  triclinic box = (0 0 0) to (23.3007 23.3007 23.3007) with tilt (-0.038842 0 0)
WARNING: Resetting reneighboring criteria during minimization (../min.cpp:168)
Ewald initialization ...
  G vector (1/distance) = 0.365055
  estimated absolute RMS force accuracy = 1.94166e-05
  estimated relative force accuracy = 1.34841e-06
  KSpace vectors: actual max1d max3d = 2082 10 4630
                  kxmax kymax kzmax  = 10 10 10
Setting up cg style minimization ...
  Unit style: metal
Memory usage per processor = 4.56167 Mbytes
Step Temp E_pair E_mol TotEng Press 
     318           10   -18274.484            0   -18273.183   -7601.0862 
     333           10   -18274.493            0   -18273.191   -7593.6573 
Loop time of 0.198417 on 12 procs for 15 steps with 1008 atoms

100.1% CPU use with 12 MPI tasks x no OpenMP threads

Minimization stats:
  Stopping criterion = linesearch alpha is zero
  Energy initial, next-to-last, final = 
        -18274.4843573     -18274.4927568     -18274.4927568
  Force two-norm initial, final = 0.403314 0.0443221
  Force max component initial, final = 0.0421285 0.00460523
  Final line search alpha, max atom move = 3.8147e-06 1.75675e-08
  Iterations, force evaluations = 15 65

MPI task timing breakdown:
Section |  min time  |  avg time  |  max time  |%varavg| %total
---------------------------------------------------------------
Pair    | 0.063913   | 0.072696   | 0.077953   |   1.4 | 36.64
Kspace  | 0.10836    | 0.11129    | 0.11316    |   0.4 | 56.09
Neigh   | 0          | 0          | 0          |   0.0 |  0.00
Comm    | 0.0079801  | 0.012505   | 0.019774   |   2.6 |  6.30
Output  | 0          | 0          | 0          |   0.0 |  0.00
Modify  | 0          | 0          | 0          |   0.0 |  0.00
Other   |            | 0.001925   |            |       |  0.97

Nlocal:    84 ave 87 max 77 min
Histogram: 1 0 0 0 0 3 0 2 1 5
Nghost:    2608.25 ave 2643 max 2575 min
Histogram: 2 1 1 0 3 1 0 2 1 1
Neighs:    18641.8 ave 19366 max 16980 min
Histogram: 1 0 0 0 1 3 1 0 1 5

Total # of neighbors = 223701
Ave neighs/atom = 221.926
Neighbor list builds = 0
Dangerous builds = 0
CR_UPDATE- 23.300680	23.300680	23.300680	0.000000	0.000000	0.000000
For k = 3, applying strain of 1
Changing box ...
  triclinic box = (0 0 0) to (23.3007 23.3007 23.3007) with tilt (0 0 0)
WARNING: Resetting reneighboring criteria during minimization (../min.cpp:168)
Ewald initialization ...
  G vector (1/distance) = 0.365055
  estimated absolute RMS force accuracy = 1.94166e-05
  estimated relative force accuracy = 1.34841e-06
  KSpace vectors: actual max1d max3d = 2084 10 4630
                  kxmax kymax kzmax  = 10 10 10
Setting up cg style minimization ...
  Unit style: metal
Memory usage per processor = 4.56167 Mbytes
Step Temp E_pair E_mol TotEng Press 
     333           10   -18274.524            0   -18273.222   -7605.4286 
     334           10   -18274.524            0   -18273.222   -7605.4286 
Loop time of 0.0711554 on 12 procs for 1 steps with 1008 atoms

99.6% CPU use with 12 MPI tasks x no OpenMP threads

Minimization stats:
  Stopping criterion = linesearch alpha is zero
  Energy initial, next-to-last, final = 
        -18274.5239888     -18274.5239888     -18274.5239888
  Force two-norm initial, final = 0.00471233 0.00471233
  Force max component initial, final = 0.000334354 0.000334354
  Final line search alpha, max atom move = 0.000488281 1.63259e-07
  Iterations, force evaluations = 1 23

MPI task timing breakdown:
Section |  min time  |  avg time  |  max time  |%varavg| %total
---------------------------------------------------------------
Pair    | 0.023609   | 0.026481   | 0.027945   |   0.7 | 37.22
Kspace  | 0.038836   | 0.039698   | 0.040251   |   0.2 | 55.79
Neigh   | 0          | 0          | 0          |   0.0 |  0.00
Comm    | 0.0029614  | 0.0043185  | 0.0066121  |   1.4 |  6.07
Output  | 0          | 0          | 0          |   0.0 |  0.00
Modify  | 0          | 0          | 0          |   0.0 |  0.00
Other   |            | 0.0006577  |            |       |  0.92

Nlocal:    84 ave 87 max 77 min
Histogram: 1 0 0 0 0 3 0 2 1 5
Nghost:    2608.25 ave 2643 max 2575 min
Histogram: 2 1 1 0 3 1 0 2 1 1
Neighs:    18639.8 ave 19374 max 16978 min
Histogram: 1 0 0 0 1 3 1 1 0 5

Total # of neighbors = 223678
Ave neighs/atom = 221.903
Neighbor list builds = 0
Dangerous builds = 0
CR_UPDATE- 23.300680	23.300680	23.300680	0.000000	0.000000	0.000000
For k = 4, applying strain of 1.00167
Changing box ...
  triclinic box = (0 0 0) to (23.3007 23.3007 23.3007) with tilt (0.038842 0 0)
WARNING: Resetting reneighboring criteria during minimization (../min.cpp:168)
Ewald initialization ...
  G vector (1/distance) = 0.365055
  estimated absolute RMS force accuracy = 1.94166e-05
  estimated relative force accuracy = 1.34841e-06
  KSpace vectors: actual max1d max3d = 2082 10 4630
                  kxmax kymax kzmax  = 10 10 10
Setting up cg style minimization ...
  Unit style: metal
Memory usage per processor = 4.56167 Mbytes
Step Temp E_pair E_mol TotEng Press 
     334           10   -18274.534            0   -18273.233   -7604.8192 
     337           10   -18274.538            0   -18273.236   -7609.7996 
Loop time of 0.150269 on 12 procs for 3 steps with 1008 atoms

99.8% CPU use with 12 MPI tasks x no OpenMP threads

Minimization stats:
  Stopping criterion = linesearch alpha is zero
  Energy initial, next-to-last, final = 
        -18274.5344243       -18274.53772       -18274.53772
  Force two-norm initial, final = 0.403057 0.192744
  Force max component initial, final = 0.041868 0.0324903
  Final line search alpha, max atom move = 2.38419e-07 7.74629e-09
  Iterations, force evaluations = 3 49

MPI task timing breakdown:
Section |  min time  |  avg time  |  max time  |%varavg| %total
---------------------------------------------------------------
Pair    | 0.048692   | 0.055238   | 0.059343   |   1.2 | 36.76
Kspace  | 0.082173   | 0.084363   | 0.086198   |   0.4 | 56.14
Neigh   | 0          | 0          | 0          |   0.0 |  0.00
Comm    | 0.0062189  | 0.0093495  | 0.014834   |   2.2 |  6.22
Output  | 0          | 0          | 0          |   0.0 |  0.00
Modify  | 0          | 0          | 0          |   0.0 |  0.00
Other   |            | 0.001319   |            |       |  0.88

Nlocal:    84 ave 87 max 77 min
Histogram: 1 0 0 0 0 3 0 2 1 5
Nghost:    2608.25 ave 2643 max 2575 min
Histogram: 2 1 1 0 3 1 0 2 1 1
Neighs:    18638.2 ave 19368 max 16991 min
Histogram: 1 0 0 0 1 3 1 0 1 5

Total # of neighbors = 223658
Ave neighs/atom = 221.883
Neighbor list builds = 0
Dangerous builds = 0
CR_UPDATE- 23.300680	23.300680	23.300680	0.000000	0.000000	0.000000
For k = 5, applying strain of 1.00333
Changing box ...
  triclinic box = (0 0 0) to (23.3007 23.3007 23.3007) with tilt (0.077661 0 0)
WARNING: Resetting reneighboring criteria during minimization (../min.cpp:168)
Ewald initialization ...
  G vector (1/distance) = 0.365055
  estimated absolute RMS force accuracy = 1.94166e-05
  estimated relative force accuracy = 1.34841e-06
  KSpace vectors: actual max1d max3d = 2081 10 4630
                  kxmax kymax kzmax  = 10 10 10
Setting up cg style minimization ...
  Unit style: metal
Memory usage per processor = 4.56167 Mbytes
Step Temp E_pair E_mol TotEng Press 
     337           10   -18274.518            0   -18273.216   -7599.8034 
     346           10    -18274.54            0   -18273.238   -7603.7167 
Loop time of 0.180124 on 12 procs for 9 steps with 1008 atoms

99.8% CPU use with 12 MPI tasks x no OpenMP threads

Minimization stats:
  Stopping criterion = linesearch alpha is zero
  Energy initial, next-to-last, final = 
        -18274.5175419     -18274.5396159     -18274.5396159
  Force two-norm initial, final = 0.805934 0.146814
  Force max component initial, final = 0.0836965 0.0178242
  Final line search alpha, max atom move = 4.76837e-07 8.49926e-09
  Iterations, force evaluations = 9 59

MPI task timing breakdown:
Section |  min time  |  avg time  |  max time  |%varavg| %total
---------------------------------------------------------------
Pair    | 0.058115   | 0.066239   | 0.071188   |   1.4 | 36.77
Kspace  | 0.098123   | 0.10097    | 0.10302    |   0.4 | 56.06
Neigh   | 0          | 0          | 0          |   0.0 |  0.00
Comm    | 0.0074875  | 0.011264   | 0.01708    |   2.3 |  6.25
Output  | 0          | 0          | 0          |   0.0 |  0.00
Modify  | 0          | 0          | 0          |   0.0 |  0.00
Other   |            | 0.001645   |            |       |  0.91

Nlocal:    84 ave 87 max 77 min
Histogram: 1 0 0 0 0 3 0 2 1 5
Nghost:    2608.25 ave 2643 max 2575 min
Histogram: 2 1 1 0 3 1 0 2 1 1
Neighs:    18636.4 ave 19370 max 16988 min
Histogram: 1 0 0 0 1 3 1 1 0 5

Total # of neighbors = 223637
Ave neighs/atom = 221.862
Neighbor list builds = 0
Dangerous builds = 0
CR_UPDATE- 23.300680	23.300680	23.300680	0.000000	0.000000	0.000000
For k = 6, applying strain of 1.005
Changing box ...
  triclinic box = (0 0 0) to (23.3007 23.3007 23.3007) with tilt (0.116503 0 0)
WARNING: Resetting reneighboring criteria during minimization (../min.cpp:168)
Ewald initialization ...
  G vector (1/distance) = 0.365055
  estimated absolute RMS force accuracy = 1.94166e-05
  estimated relative force accuracy = 1.34841e-06
  KSpace vectors: actual max1d max3d = 2079 10 4630
                  kxmax kymax kzmax  = 10 10 10
Setting up cg style minimization ...
  Unit style: metal
Memory usage per processor = 4.56167 Mbytes
Step Temp E_pair E_mol TotEng Press 
     346           10   -18274.472            0    -18273.17   -7589.8458 
     350           10   -18274.516            0   -18273.214   -7606.1687 
     363           10   -18274.529            0   -18273.228   -7611.7353 
Loop time of 0.339765 on 12 procs for 17 steps with 1008 atoms

99.9% CPU use with 12 MPI tasks x no OpenMP threads

Minimization stats:
  Stopping criterion = linesearch alpha is zero
  Energy initial, next-to-last, final = 
        -18274.4716789     -18274.5294058     -18274.5294058
  Force two-norm initial, final = 1.20905 0.121322
  Force max component initial, final = 0.125443 0.0118912
  Final line search alpha, max atom move = 4.76837e-07 5.67016e-09
  Iterations, force evaluations = 17 113

MPI task timing breakdown:
Section |  min time  |  avg time  |  max time  |%varavg| %total
---------------------------------------------------------------
Pair    | 0.10902    | 0.12566    | 0.13421    |   1.9 | 36.98
Kspace  | 0.18527    | 0.19011    | 0.19447    |   0.6 | 55.95
Neigh   | 0          | 0          | 0          |   0.0 |  0.00
Comm    | 0.013755   | 0.021023   | 0.03289    |   3.4 |  6.19
Output  | 3.0994e-05 | 3.1769e-05 | 3.5048e-05 |   0.0 |  0.01
Modify  | 0          | 0          | 0          |   0.0 |  0.00
Other   |            | 0.00294    |            |       |  0.87

Nlocal:    84 ave 87 max 77 min
Histogram: 1 0 0 0 0 3 0 2 1 5
Nghost:    2608.25 ave 2643 max 2575 min
Histogram: 2 1 1 0 3 1 0 2 1 1
Neighs:    18636.3 ave 19368 max 16987 min
Histogram: 1 0 0 0 1 3 1 1 0 5

Total # of neighbors = 223636
Ave neighs/atom = 221.861
Neighbor list builds = 0
Dangerous builds = 0
CR_UPDATE- 23.300680	23.300680	23.300680	0.000000	0.000000	0.000000
For k = 0, applying strain of 0.995
Changing box ...
  triclinic box = (0 0 0) to (23.3007 23.3007 23.3007) with tilt (0 -0.116503 0)
WARNING: Resetting reneighboring criteria during minimization (../min.cpp:168)
Ewald initialization ...
  G vector (1/distance) = 0.365055
  estimated absolute RMS force accuracy = 1.94166e-05
  estimated relative force accuracy = 1.34841e-06
  KSpace vectors: actual max1d max3d = 2079 10 4630
                  kxmax kymax kzmax  = 10 10 10
Setting up cg style minimization ...
  Unit style: metal
Memory usage per processor = 4.56167 Mbytes
Step Temp E_pair E_mol TotEng Press 
     363           10   -18274.326            0   -18273.024   -7498.6165 
     377           10   -18274.383            0   -18273.082   -7528.7871 
Loop time of 0.210995 on 12 procs for 14 steps with 1008 atoms

99.9% CPU use with 12 MPI tasks x no OpenMP threads

Minimization stats:
  Stopping criterion = linesearch alpha is zero
  Energy initial, next-to-last, final = 
        -18274.3255585     -18274.3833798     -18274.3833798
  Force two-norm initial, final = 1.23378 0.144271
  Force max component initial, final = 0.10904 0.0110495
  Final line search alpha, max atom move = 4.76837e-07 5.26879e-09
  Iterations, force evaluations = 14 69

MPI task timing breakdown:
Section |  min time  |  avg time  |  max time  |%varavg| %total
---------------------------------------------------------------
Pair    | 0.067384   | 0.077211   | 0.082783   |   1.5 | 36.59
Kspace  | 0.11324    | 0.11775    | 0.11991    |   0.5 | 55.81
Neigh   | 0          | 0          | 0          |   0.0 |  0.00
Comm    | 0.0092416  | 0.013667   | 0.021084   |   2.5 |  6.48
Output  | 0          | 0          | 0          |   0.0 |  0.00
Modify  | 0          | 0          | 0          |   0.0 |  0.00
Other   |            | 0.002363   |            |       |  1.12

Nlocal:    84 ave 87 max 77 min
Histogram: 1 0 0 0 0 3 0 2 1 5
Nghost:    2608.25 ave 2643 max 2575 min
Histogram: 2 1 1 0 3 1 0 2 1 1
Neighs:    18637.2 ave 19356 max 16981 min
Histogram: 1 0 0 0 1 3 0 1 1 5

Total # of neighbors = 223646
Ave neighs/atom = 221.871
Neighbor list builds = 0
Dangerous builds = 0
CR_UPDATE- 23.300680	23.300680	23.300680	0.000000	0.000000	0.000000
For k = 1, applying strain of 0.996667
Changing box ...
  triclinic box = (0 0 0) to (23.3007 23.3007 23.3007) with tilt (0 -0.077661 0)
WARNING: Resetting reneighboring criteria during minimization (../min.cpp:168)
Ewald initialization ...
  G vector (1/distance) = 0.365055
  estimated absolute RMS force accuracy = 1.94166e-05
  estimated relative force accuracy = 1.34841e-06
  KSpace vectors: actual max1d max3d = 2081 10 4630
                  kxmax kymax kzmax  = 10 10 10
Setting up cg style minimization ...
  Unit style: metal
Memory usage per processor = 4.56167 Mbytes
Step Temp E_pair E_mol TotEng Press 
     377           10   -18274.419            0   -18273.117   -7538.8891 
     391           10   -18274.444            0   -18273.142   -7552.1211 
Loop time of 0.317263 on 12 procs for 14 steps with 1008 atoms

99.8% CPU use with 12 MPI tasks x no OpenMP threads

Minimization stats:
  Stopping criterion = linesearch alpha is zero
  Energy initial, next-to-last, final = 
        -18274.4187768     -18274.4436784     -18274.4436784
  Force two-norm initial, final = 0.822465 0.0968997
  Force max component initial, final = 0.0727303 0.00816285
  Final line search alpha, max atom move = 9.53674e-07 7.7847e-09
  Iterations, force evaluations = 14 105

MPI task timing breakdown:
Section |  min time  |  avg time  |  max time  |%varavg| %total
---------------------------------------------------------------
Pair    | 0.103      | 0.11708    | 0.12518    |   1.7 | 36.90
Kspace  | 0.17368    | 0.17783    | 0.18064    |   0.5 | 56.05
Neigh   | 0          | 0          | 0          |   0.0 |  0.00
Comm    | 0.012672   | 0.01955    | 0.03036    |   3.2 |  6.16
Output  | 0          | 0          | 0          |   0.0 |  0.00
Modify  | 0          | 0          | 0          |   0.0 |  0.00
Other   |            | 0.002803   |            |       |  0.88

Nlocal:    84 ave 87 max 77 min
Histogram: 1 0 0 0 0 3 0 2 1 5
Nghost:    2608.25 ave 2643 max 2575 min
Histogram: 2 1 1 0 3 1 0 2 1 1
Neighs:    18637.9 ave 19359 max 16986 min
Histogram: 1 0 0 0 1 3 1 0 1 5

Total # of neighbors = 223655
Ave neighs/atom = 221.88
Neighbor list builds = 0
Dangerous builds = 0
CR_UPDATE- 23.300680	23.300680	23.300680	0.000000	0.000000	0.000000
For k = 2, applying strain of 0.998333
Changing box ...
  triclinic box = (0 0 0) to (23.3007 23.3007 23.3007) with tilt (0 -0.038842 0)
WARNING: Resetting reneighboring criteria during minimization (../min.cpp:168)
Ewald initialization ...
  G vector (1/distance) = 0.365055
  estimated absolute RMS force accuracy = 1.94166e-05
  estimated relative force accuracy = 1.34841e-06
  KSpace vectors: actual max1d max3d = 2082 10 4630
                  kxmax kymax kzmax  = 10 10 10
Setting up cg style minimization ...
  Unit style: metal
Memory usage per processor = 4.56167 Mbytes
Step Temp E_pair E_mol TotEng Press 
     391           10   -18274.485            0   -18273.184    -7574.662 
     400           10   -18274.493            0   -18273.191   -7570.1219 
Loop time of 0.167648 on 12 procs for 9 steps with 1008 atoms

100.1% CPU use with 12 MPI tasks x no OpenMP threads

Minimization stats:
  Stopping criterion = linesearch alpha is zero
  Energy initial, next-to-last, final = 
         -18274.485488     -18274.4925444     -18274.4925444
  Force two-norm initial, final = 0.411357 0.0770905
  Force max component initial, final = 0.0363952 0.00985953
  Final line search alpha, max atom move = 1.90735e-06 1.88056e-08
  Iterations, force evaluations = 9 55

MPI task timing breakdown:
Section |  min time  |  avg time  |  max time  |%varavg| %total
---------------------------------------------------------------
Pair    | 0.053815   | 0.061778   | 0.066231   |   1.3 | 36.85
Kspace  | 0.091275   | 0.094118   | 0.096195   |   0.4 | 56.14
Neigh   | 0          | 0          | 0          |   0.0 |  0.00
Comm    | 0.0070722  | 0.010364   | 0.016082   |   2.3 |  6.18
Output  | 0          | 0          | 0          |   0.0 |  0.00
Modify  | 0          | 0          | 0          |   0.0 |  0.00
Other   |            | 0.001388   |            |       |  0.83

Nlocal:    84 ave 87 max 77 min
Histogram: 1 0 0 0 0 3 0 2 1 5
Nghost:    2608.25 ave 2643 max 2575 min
Histogram: 2 1 1 0 3 1 0 2 1 1
Neighs:    18636.9 ave 19358 max 16985 min
Histogram: 1 0 0 0 1 3 1 0 1 5

Total # of neighbors = 223643
Ave neighs/atom = 221.868
Neighbor list builds = 0
Dangerous builds = 0
CR_UPDATE- 23.300680	23.300680	23.300680	0.000000	0.000000	0.000000
For k = 3, applying strain of 1
Changing box ...
  triclinic box = (0 0 0) to (23.3007 23.3007 23.3007) with tilt (0 0 0)
WARNING: Resetting reneighboring criteria during minimization (../min.cpp:168)
Ewald initialization ...
  G vector (1/distance) = 0.365055
  estimated absolute RMS force accuracy = 1.94166e-05
  estimated relative force accuracy = 1.34841e-06
  KSpace vectors: actual max1d max3d = 2084 10 4630
                  kxmax kymax kzmax  = 10 10 10
Setting up cg style minimization ...
  Unit style: metal
Memory usage per processor = 4.56167 Mbytes
Step Temp E_pair E_mol TotEng Press 
     400           10   -18274.524            0   -18273.222   -7605.4286 
     401           10   -18274.524            0   -18273.222   -7605.4286 
Loop time of 0.0712926 on 12 procs for 1 steps with 1008 atoms

100.3% CPU use with 12 MPI tasks x no OpenMP threads

Minimization stats:
  Stopping criterion = linesearch alpha is zero
  Energy initial, next-to-last, final = 
        -18274.5239888     -18274.5239888     -18274.5239888
  Force two-norm initial, final = 0.00471233 0.00471233
  Force max component initial, final = 0.000334354 0.000334354
  Final line search alpha, max atom move = 0.000488281 1.63259e-07
  Iterations, force evaluations = 1 23

MPI task timing breakdown:
Section |  min time  |  avg time  |  max time  |%varavg| %total
---------------------------------------------------------------
Pair    | 0.022815   | 0.026414   | 0.028356   |   0.9 | 37.05
Kspace  | 0.038983   | 0.039965   | 0.040936   |   0.3 | 56.06
Neigh   | 0          | 0          | 0          |   0.0 |  0.00
Comm    | 0.0026422  | 0.004241   | 0.0068099  |   1.6 |  5.95
Output  | 0          | 0          | 0          |   0.0 |  0.00
Modify  | 0          | 0          | 0          |   0.0 |  0.00
Other   |            | 0.0006732  |            |       |  0.94

Nlocal:    84 ave 87 max 77 min
Histogram: 1 0 0 0 0 3 0 2 1 5
Nghost:    2608.25 ave 2643 max 2575 min
Histogram: 2 1 1 0 3 1 0 2 1 1
Neighs:    18639.8 ave 19374 max 16978 min
Histogram: 1 0 0 0 1 3 1 1 0 5

Total # of neighbors = 223678
Ave neighs/atom = 221.903
Neighbor list builds = 0
Dangerous builds = 0
CR_UPDATE- 23.300680	23.300680	23.300680	0.000000	0.000000	0.000000
For k = 4, applying strain of 1.00167
Changing box ...
  triclinic box = (0 0 0) to (23.3007 23.3007 23.3007) with tilt (0 0.038842 0)
WARNING: Resetting reneighboring criteria during minimization (../min.cpp:168)
Ewald initialization ...
  G vector (1/distance) = 0.365055
  estimated absolute RMS force accuracy = 1.94166e-05
  estimated relative force accuracy = 1.34841e-06
  KSpace vectors: actual max1d max3d = 2082 10 4630
                  kxmax kymax kzmax  = 10 10 10
Setting up cg style minimization ...
  Unit style: metal
Memory usage per processor = 4.56167 Mbytes
Step Temp E_pair E_mol TotEng Press 
     401           10   -18274.534            0   -18273.233   -7631.2437 
     412           10   -18274.542            0    -18273.24   -7616.8912 
Loop time of 0.256873 on 12 procs for 11 steps with 1008 atoms

100.0% CPU use with 12 MPI tasks x no OpenMP threads

Minimization stats:
  Stopping criterion = linesearch alpha is zero
  Energy initial, next-to-last, final = 
        -18274.5343566     -18274.5419632     -18274.5419632
  Force two-norm initial, final = 0.411413 0.0616752
  Force max component initial, final = 0.0364782 0.00678164
  Final line search alpha, max atom move = 1.90735e-06 1.29349e-08
  Iterations, force evaluations = 11 85

MPI task timing breakdown:
Section |  min time  |  avg time  |  max time  |%varavg| %total
---------------------------------------------------------------
Pair    | 0.082589   | 0.094447   | 0.10147    |   1.6 | 36.77
Kspace  | 0.14033    | 0.14418    | 0.1467     |   0.4 | 56.13
Neigh   | 0          | 0          | 0          |   0.0 |  0.00
Comm    | 0.010321   | 0.016004   | 0.02503    |   3.0 |  6.23
Output  | 0          | 0          | 0          |   0.0 |  0.00
Modify  | 0          | 0          | 0          |   0.0 |  0.00
Other   |            | 0.002238   |            |       |  0.87

Nlocal:    84 ave 87 max 77 min
Histogram: 1 0 0 0 0 3 0 2 1 5
Nghost:    2608.25 ave 2643 max 2575 min
Histogram: 2 1 1 0 3 1 0 2 1 1
Neighs:    18638.8 ave 19367 max 16979 min
Histogram: 1 0 0 0 1 3 1 0 1 5

Total # of neighbors = 223666
Ave neighs/atom = 221.891
Neighbor list builds = 0
Dangerous builds = 0
CR_UPDATE- 23.300680	23.300680	23.300680	0.000000	0.000000	0.000000
For k = 5, applying strain of 1.00333
Changing box ...
  triclinic box = (0 0 0) to (23.3007 23.3007 23.3007) with tilt (0 0.077661 0)
WARNING: Resetting reneighboring criteria during minimization (../min.cpp:168)
Ewald initialization ...
  G vector (1/distance) = 0.365055
  estimated absolute RMS force accuracy = 1.94166e-05
  estimated relative force accuracy = 1.34841e-06
  KSpace vectors: actual max1d max3d = 2081 10 4630
                  kxmax kymax kzmax  = 10 10 10
Setting up cg style minimization ...
  Unit style: metal
Memory usage per processor = 4.56167 Mbytes
Step Temp E_pair E_mol TotEng Press 
     412           10   -18274.516            0   -18273.215   -7652.0163 
     425           10   -18274.541            0   -18273.239   -7632.2236 
Loop time of 0.307099 on 12 procs for 13 steps with 1008 atoms

99.9% CPU use with 12 MPI tasks x no OpenMP threads

Minimization stats:
  Stopping criterion = linesearch alpha is zero
  Energy initial, next-to-last, final = 
        -18274.5161783     -18274.5408715     -18274.5408715
  Force two-norm initial, final = 0.822552 0.107574
  Force max component initial, final = 0.0729683 0.00879984
  Final line search alpha, max atom move = 9.53674e-07 8.39219e-09
  Iterations, force evaluations = 13 101

MPI task timing breakdown:
Section |  min time  |  avg time  |  max time  |%varavg| %total
---------------------------------------------------------------
Pair    | 0.099181   | 0.1129     | 0.12023    |   1.6 | 36.76
Kspace  | 0.16541    | 0.17092    | 0.17437    |   0.5 | 55.66
Neigh   | 0          | 0          | 0          |   0.0 |  0.00
Comm    | 0.013254   | 0.020004   | 0.030773   |   3.1 |  6.51
Output  | 0          | 0          | 0          |   0.0 |  0.00
Modify  | 0          | 0          | 0          |   0.0 |  0.00
Other   |            | 0.003276   |            |       |  1.07

Nlocal:    84 ave 87 max 77 min
Histogram: 1 0 0 0 0 3 0 2 1 5
Nghost:    2608.25 ave 2643 max 2575 min
Histogram: 2 1 1 0 3 1 0 2 1 1
Neighs:    18637.2 ave 19354 max 16983 min
Histogram: 1 0 0 0 1 2 2 0 1 5

Total # of neighbors = 223646
Ave neighs/atom = 221.871
Neighbor list builds = 0
Dangerous builds = 0
CR_UPDATE- 23.300680	23.300680	23.300680	0.000000	0.000000	0.000000
For k = 6, applying strain of 1.005
Changing box ...
  triclinic box = (0 0 0) to (23.3007 23.3007 23.3007) with tilt (0 0.116503 0)
WARNING: Resetting reneighboring criteria during minimization (../min.cpp:168)
Ewald initialization ...
  G vector (1/distance) = 0.365055
  estimated absolute RMS force accuracy = 1.94166e-05
  estimated relative force accuracy = 1.34841e-06
  KSpace vectors: actual max1d max3d = 2079 10 4630
                  kxmax kymax kzmax  = 10 10 10
Setting up cg style minimization ...
  Unit style: metal
Memory usage per processor = 4.56167 Mbytes
Step Temp E_pair E_mol TotEng Press 
     425           10   -18274.466            0   -18273.164   -7666.8758 
     440           10   -18274.527            0   -18273.225   -7650.7005 
Loop time of 0.215176 on 12 procs for 15 steps with 1008 atoms

99.9% CPU use with 12 MPI tasks x no OpenMP threads

Minimization stats:
  Stopping criterion = linesearch alpha is zero
  Energy initial, next-to-last, final = 
        -18274.4658324     -18274.5266526     -18274.5266526
  Force two-norm initial, final = 1.23398 0.14292
  Force max component initial, final = 0.109534 0.0178783
  Final line search alpha, max atom move = 4.76837e-07 8.52504e-09
  Iterations, force evaluations = 15 71

MPI task timing breakdown:
Section |  min time  |  avg time  |  max time  |%varavg| %total
---------------------------------------------------------------
Pair    | 0.070883   | 0.079674   | 0.084984   |   1.3 | 37.03
Kspace  | 0.11663    | 0.1202     | 0.122      |   0.4 | 55.86
Neigh   | 0          | 0          | 0          |   0.0 |  0.00
Comm    | 0.0089066  | 0.013322   | 0.020536   |   2.6 |  6.19
Output  | 0          | 0          | 0          |   0.0 |  0.00
Modify  | 0          | 0          | 0          |   0.0 |  0.00
Other   |            | 0.001977   |            |       |  0.92

Nlocal:    84 ave 87 max 77 min
Histogram: 1 0 0 0 0 3 0 2 1 5
Nghost:    2608.25 ave 2643 max 2575 min
Histogram: 2 1 1 0 3 1 0 2 1 1
[...]
  KSpace vectors: actual max1d max3d = 2081 10 4630
                  kxmax kymax kzmax  = 10 10 10
Setting up cg style minimization ...
  Unit style: metal
Memory usage per processor = 4.56167 Mbytes
Step Temp E_pair E_mol TotEng Press 
     902           10   -18274.515            0   -18273.214   -8176.7069 
     916           10    -18274.54            0   -18273.238   -8114.0996 
Loop time of 0.203618 on 12 procs for 14 steps with 1008 atoms

99.8% CPU use with 12 MPI tasks x no OpenMP threads

Minimization stats:
  Stopping criterion = linesearch alpha is zero
  Energy initial, next-to-last, final = 
        -18274.5153193     -18274.5400552     -18274.5400552
  Force two-norm initial, final = 0.82227 0.102967
  Force max component initial, final = 0.071559 0.011357
  Final line search alpha, max atom move = 9.53674e-07 1.08308e-08
  Iterations, force evaluations = 14 67

MPI task timing breakdown:
Section |  min time  |  avg time  |  max time  |%varavg| %total
---------------------------------------------------------------
Pair    | 0.065192   | 0.075057   | 0.080657   |   1.6 | 36.86
Kspace  | 0.11007    | 0.11404    | 0.11634    |   0.5 | 56.01
Neigh   | 0          | 0          | 0          |   0.0 |  0.00
Comm    | 0.0077369  | 0.012654   | 0.019987   |   2.8 |  6.21
Output  | 0          | 0          | 0          |   0.0 |  0.00
Modify  | 0          | 0          | 0          |   0.0 |  0.00
Other   |            | 0.001871   |            |       |  0.92

Nlocal:    84 ave 87 max 77 min
Histogram: 1 0 0 0 0 2 1 3 1 4
Nghost:    2605.83 ave 2639 max 2575 min
Histogram: 2 0 2 0 2 2 0 2 1 1
Neighs:    18636 ave 19429 max 16985 min
Histogram: 1 0 0 0 1 2 3 0 2 3

Total # of neighbors = 223632
Ave neighs/atom = 221.857
Neighbor list builds = 0
Dangerous builds = 0
CR_UPDATE- 23.300680	23.300680	23.300680	0.000000	0.000000	0.000000
For k = 6, applying strain of 1.005
Changing box ...
  triclinic box = (0 0 0) to (23.3007 23.3007 23.3007) with tilt (0 0.116503 0)
WARNING: Resetting reneighboring criteria during minimization (../min.cpp:168)
Ewald initialization ...
  G vector (1/distance) = 0.365055
  estimated absolute RMS force accuracy = 1.94166e-05
  estimated relative force accuracy = 1.34841e-06
  KSpace vectors: actual max1d max3d = 2079 10 4630
                  kxmax kymax kzmax  = 10 10 10
Setting up cg style minimization ...
  Unit style: metal
Memory usage per processor = 4.56167 Mbytes
Step Temp E_pair E_mol TotEng Press 
     916           10    -18274.48            0   -18273.178   -8197.6288 
     939           10   -18274.546            0   -18273.244   -8089.4374 
Loop time of 0.259698 on 12 procs for 23 steps with 1008 atoms

99.7% CPU use with 12 MPI tasks x no OpenMP threads

Minimization stats:
  Stopping criterion = linesearch alpha is zero
  Energy initial, next-to-last, final = 
        -18274.4797106     -18274.5457928     -18274.5457928
  Force two-norm initial, final = 1.23361 0.0818215
  Force max component initial, final = 0.107439 0.00810503
  Final line search alpha, max atom move = 9.53674e-07 7.72956e-09
  Iterations, force evaluations = 23 85

MPI task timing breakdown:
Section |  min time  |  avg time  |  max time  |%varavg| %total
---------------------------------------------------------------
Pair    | 0.083612   | 0.095104   | 0.1018     |   1.6 | 36.62
Kspace  | 0.13938    | 0.14471    | 0.14747    |   0.5 | 55.72
Neigh   | 0          | 0          | 0          |   0.0 |  0.00
Comm    | 0.011213   | 0.016907   | 0.026657   |   3.0 |  6.51
Output  | 0          | 0          | 0          |   0.0 |  0.00
Modify  | 0          | 0          | 0          |   0.0 |  0.00
Other   |            | 0.002972   |            |       |  1.14

Nlocal:    84 ave 87 max 77 min
Histogram: 1 0 0 0 0 2 1 3 1 4
Nghost:    2605.83 ave 2639 max 2575 min
Histogram: 2 0 2 0 2 2 0 2 1 1
Neighs:    18636.4 ave 19426 max 16986 min
Histogram: 1 0 0 0 1 2 3 0 2 3

Total # of neighbors = 223637
Ave neighs/atom = 221.862
Neighbor list builds = 0
Dangerous builds = 0
CR_UPDATE- 23.300680	23.300680	23.300680	0.000000	0.000000	0.000000
For k = 0, applying strain of 0.995
Changing box ...
  triclinic box = (0 0 0) to (23.3007 23.3007 23.3007) with tilt (0 0 -0.116503)
WARNING: Resetting reneighboring criteria during minimization (../min.cpp:168)
Ewald initialization ...
  G vector (1/distance) = 0.365055
  estimated absolute RMS force accuracy = 1.94166e-05
  estimated relative force accuracy = 1.34841e-06
  KSpace vectors: actual max1d max3d = 2079 10 4630
                  kxmax kymax kzmax  = 10 10 10
Setting up cg style minimization ...
  Unit style: metal
Memory usage per processor = 4.56167 Mbytes
Step Temp E_pair E_mol TotEng Press 
     939           10   -18274.494            0   -18273.192    -8064.375 
     950           10   -18274.552            0    -18273.25   -7973.6712 
     955           10   -18274.556            0   -18273.254    -7986.452 
Loop time of 0.223465 on 12 procs for 16 steps with 1008 atoms

99.9% CPU use with 12 MPI tasks x no OpenMP threads

Minimization stats:
  Stopping criterion = linesearch alpha is zero
  Energy initial, next-to-last, final = 
        -18274.4938609     -18274.5556413     -18274.5556413
  Force two-norm initial, final = 1.25729 0.125944
  Force max component initial, final = 0.131228 0.0110795
  Final line search alpha, max atom move = 4.76837e-07 5.28314e-09
  Iterations, force evaluations = 16 73

MPI task timing breakdown:
Section |  min time  |  avg time  |  max time  |%varavg| %total
---------------------------------------------------------------
Pair    | 0.071298   | 0.082004   | 0.087206   |   1.5 | 36.70
Kspace  | 0.12028    | 0.12536    | 0.12836    |   0.6 | 56.10
Neigh   | 0          | 0          | 0          |   0.0 |  0.00
Comm    | 0.0095417  | 0.014121   | 0.021589   |   2.6 |  6.32
Output  | 3.4094e-05 | 3.5862e-05 | 3.8147e-05 |   0.0 |  0.02
Modify  | 0          | 0          | 0          |   0.0 |  0.00
Other   |            | 0.001945   |            |       |  0.87

Nlocal:    84 ave 87 max 77 min
Histogram: 1 0 0 0 0 2 1 3 1 4
Nghost:    2605.83 ave 2639 max 2575 min
Histogram: 2 0 2 0 2 2 0 2 1 1
Neighs:    18641.2 ave 19447 max 16994 min
Histogram: 1 0 0 0 1 2 3 0 2 3

Total # of neighbors = 223694
Ave neighs/atom = 221.919
Neighbor list builds = 0
Dangerous builds = 0
CR_UPDATE- 23.300680	23.300680	23.300680	0.000000	0.000000	0.000000
For k = 1, applying strain of 0.996667
Changing box ...
  triclinic box = (0 0 0) to (23.3007 23.3007 23.3007) with tilt (0 0 -0.077661)
WARNING: Resetting reneighboring criteria during minimization (../min.cpp:168)
Ewald initialization ...
  G vector (1/distance) = 0.365055
  estimated absolute RMS force accuracy = 1.94166e-05
  estimated relative force accuracy = 1.34841e-06
  KSpace vectors: actual max1d max3d = 2081 10 4630
                  kxmax kymax kzmax  = 10 10 10
Setting up cg style minimization ...
  Unit style: metal
Memory usage per processor = 4.56167 Mbytes
Step Temp E_pair E_mol TotEng Press 
     955           10   -18274.523            0   -18273.221   -8087.4169 
     971           10   -18274.551            0    -18273.25   -8029.2664 
Loop time of 0.216462 on 12 procs for 16 steps with 1008 atoms

99.9% CPU use with 12 MPI tasks x no OpenMP threads

Minimization stats:
  Stopping criterion = linesearch alpha is zero
  Energy initial, next-to-last, final = 
        -18274.5230219     -18274.5512276     -18274.5512276
  Force two-norm initial, final = 0.838243 0.0835574
  Force max component initial, final = 0.0874766 0.00755424
  Final line search alpha, max atom move = 9.53674e-07 7.20429e-09
  Iterations, force evaluations = 16 71

MPI task timing breakdown:
Section |  min time  |  avg time  |  max time  |%varavg| %total
---------------------------------------------------------------
Pair    | 0.069694   | 0.07957    | 0.084419   |   1.4 | 36.76
Kspace  | 0.11664    | 0.12061    | 0.12286    |   0.5 | 55.72
Neigh   | 0          | 0          | 0          |   0.0 |  0.00
Comm    | 0.0095932  | 0.014083   | 0.021435   |   2.6 |  6.51
Output  | 0          | 0          | 0          |   0.0 |  0.00
Modify  | 0          | 0          | 0          |   0.0 |  0.00
Other   |            | 0.002198   |            |       |  1.02

Nlocal:    84 ave 87 max 77 min
Histogram: 1 0 0 0 0 2 1 3 1 4
Nghost:    2605.83 ave 2639 max 2575 min
Histogram: 2 0 2 0 2 2 0 2 1 1
Neighs:    18640 ave 19444 max 16994 min
Histogram: 1 0 0 0 2 1 3 0 2 3

Total # of neighbors = 223680
Ave neighs/atom = 221.905
Neighbor list builds = 0
Dangerous builds = 0
CR_UPDATE- 23.300680	23.300680	23.300680	0.000000	0.000000	0.000000
For k = 2, applying strain of 0.998333
Changing box ...
  triclinic box = (0 0 0) to (23.3007 23.3007 23.3007) with tilt (0 0 -0.038842)
WARNING: Resetting reneighboring criteria during minimization (../min.cpp:168)
Ewald initialization ...
  G vector (1/distance) = 0.365055
  estimated absolute RMS force accuracy = 1.94166e-05
  estimated relative force accuracy = 1.34841e-06
  KSpace vectors: actual max1d max3d = 2082 10 4630
                  kxmax kymax kzmax  = 10 10 10
Setting up cg style minimization ...
  Unit style: metal
Memory usage per processor = 4.56167 Mbytes
Step Temp E_pair E_mol TotEng Press 
     971           10   -18274.523            0   -18273.222   -8105.4211 
     977           10    -18274.53            0   -18273.228   -8067.2939 
Loop time of 0.156729 on 12 procs for 6 steps with 1008 atoms

99.7% CPU use with 12 MPI tasks x no OpenMP threads

Minimization stats:
  Stopping criterion = linesearch alpha is zero
  Energy initial, next-to-last, final = 
        -18274.5234799     -18274.5297677     -18274.5297677
  Force two-norm initial, final = 0.419385 0.112441
  Force max component initial, final = 0.0437845 0.0139442
  Final line search alpha, max atom move = 9.53674e-07 1.32983e-08
  Iterations, force evaluations = 6 51

MPI task timing breakdown:
Section |  min time  |  avg time  |  max time  |%varavg| %total
---------------------------------------------------------------
Pair    | 0.04994    | 0.05731    | 0.061346   |   1.3 | 36.57
Kspace  | 0.086282   | 0.088107   | 0.089681   |   0.3 | 56.22
Neigh   | 0          | 0          | 0          |   0.0 |  0.00
Comm    | 0.0064478  | 0.0099921  | 0.015627   |   2.4 |  6.38
Output  | 0          | 0          | 0          |   0.0 |  0.00
Modify  | 0          | 0          | 0          |   0.0 |  0.00
Other   |            | 0.001319   |            |       |  0.84

Nlocal:    84 ave 87 max 77 min
Histogram: 1 0 0 0 0 2 1 3 1 4
Nghost:    2605.83 ave 2639 max 2575 min
Histogram: 2 0 2 0 2 2 0 2 1 1
Neighs:    18639.9 ave 19445 max 16999 min
Histogram: 1 0 0 0 1 2 3 0 2 3

Total # of neighbors = 223679
Ave neighs/atom = 221.904
Neighbor list builds = 0
Dangerous builds = 0
CR_UPDATE- 23.300680	23.300680	23.300680	0.000000	0.000000	0.000000
For k = 3, applying strain of 1
Changing box ...
  triclinic box = (0 0 0) to (23.3007 23.3007 23.3007) with tilt (0 0 0)
WARNING: Resetting reneighboring criteria during minimization (../min.cpp:168)
Ewald initialization ...
  G vector (1/distance) = 0.365055
  estimated absolute RMS force accuracy = 1.94166e-05
  estimated relative force accuracy = 1.34841e-06
  KSpace vectors: actual max1d max3d = 2084 10 4630
                  kxmax kymax kzmax  = 10 10 10
Setting up cg style minimization ...
  Unit style: metal
Memory usage per processor = 4.56167 Mbytes
Step Temp E_pair E_mol TotEng Press 
     977           10   -18274.497            0   -18273.196   -8118.9743 
     978           10   -18274.497            0   -18273.196   -8118.9743 
Loop time of 0.0721148 on 12 procs for 1 steps with 1008 atoms

99.6% CPU use with 12 MPI tasks x no OpenMP threads

Minimization stats:
  Stopping criterion = linesearch alpha is zero
  Energy initial, next-to-last, final = 
        -18274.4974191     -18274.4974191     -18274.4974191
  Force two-norm initial, final = 0.00471151 0.00471151
  Force max component initial, final = 0.000342566 0.000342566
  Final line search alpha, max atom move = 0.000488281 1.67269e-07
  Iterations, force evaluations = 1 23

MPI task timing breakdown:
Section |  min time  |  avg time  |  max time  |%varavg| %total
---------------------------------------------------------------
Pair    | 0.023471   | 0.026477   | 0.028121   |   0.8 | 36.71
Kspace  | 0.039048   | 0.04019    | 0.040882   |   0.3 | 55.73
Neigh   | 0          | 0          | 0          |   0.0 |  0.00
Comm    | 0.003231   | 0.0046671  | 0.0069621  |   1.4 |  6.47
Output  | 0          | 0          | 0          |   0.0 |  0.00
Modify  | 0          | 0          | 0          |   0.0 |  0.00
Other   |            | 0.0007807  |            |       |  1.08

Nlocal:    84 ave 87 max 77 min
Histogram: 1 0 0 0 0 2 1 3 1 4
Nghost:    2605.83 ave 2639 max 2575 min
Histogram: 2 0 2 0 2 2 0 2 1 1
Neighs:    18638.8 ave 19437 max 16993 min
Histogram: 1 0 0 0 1 2 3 0 2 3

Total # of neighbors = 223665
Ave neighs/atom = 221.89
Neighbor list builds = 0
Dangerous builds = 0
CR_UPDATE- 23.300680	23.300680	23.300680	0.000000	0.000000	0.000000
For k = 4, applying strain of 1.00167
Changing box ...
  triclinic box = (0 0 0) to (23.3007 23.3007 23.3007) with tilt (0 0 0.038842)
WARNING: Resetting reneighboring criteria during minimization (../min.cpp:168)
Ewald initialization ...
  G vector (1/distance) = 0.365055
  estimated absolute RMS force accuracy = 1.94166e-05
  estimated relative force accuracy = 1.34841e-06
  KSpace vectors: actual max1d max3d = 2082 10 4630
                  kxmax kymax kzmax  = 10 10 10
Setting up cg style minimization ...
  Unit style: metal
Memory usage per processor = 4.56167 Mbytes
Step Temp E_pair E_mol TotEng Press 
     978           10   -18274.443            0   -18273.141   -8127.4524 
     986           10    -18274.45            0   -18273.148   -8156.8926 
Loop time of 0.171619 on 12 procs for 8 steps with 1008 atoms

100.1% CPU use with 12 MPI tasks x no OpenMP threads

Minimization stats:
  Stopping criterion = linesearch alpha is zero
  Energy initial, next-to-last, final = 
         -18274.442837      -18274.449532      -18274.449532
  Force two-norm initial, final = 0.419117 0.0880055
  Force max component initial, final = 0.0435997 0.00773967
  Final line search alpha, max atom move = 9.53674e-07 7.38112e-09
  Iterations, force evaluations = 8 55

MPI task timing breakdown:
Section |  min time  |  avg time  |  max time  |%varavg| %total
---------------------------------------------------------------
Pair    | 0.054122   | 0.062118   | 0.066082   |   1.3 | 36.20
Kspace  | 0.091119   | 0.094876   | 0.096785   |   0.5 | 55.28
Neigh   | 0          | 0          | 0          |   0.0 |  0.00
Comm    | 0.0089221  | 0.012722   | 0.019531   |   2.4 |  7.41
Output  | 0          | 0          | 0          |   0.0 |  0.00
Modify  | 0          | 0          | 0          |   0.0 |  0.00
Other   |            | 0.001903   |            |       |  1.11

Nlocal:    84 ave 87 max 77 min
Histogram: 1 0 0 0 0 2 1 3 1 4
Nghost:    2605.83 ave 2639 max 2575 min
Histogram: 2 0 2 0 2 2 0 2 1 1
Neighs:    18637.8 ave 19439 max 16989 min
Histogram: 1 0 0 0 1 2 3 0 2 3

Total # of neighbors = 223653
Ave neighs/atom = 221.878
Neighbor list builds = 0
Dangerous builds = 0
CR_UPDATE- 23.300680	23.300680	23.300680	0.000000	0.000000	0.000000
For k = 5, applying strain of 1.00333
Changing box ...
  triclinic box = (0 0 0) to (23.3007 23.3007 23.3007) with tilt (0 0 0.077661)
WARNING: Resetting reneighboring criteria during minimization (../min.cpp:168)
Ewald initialization ...
  G vector (1/distance) = 0.365055
  estimated absolute RMS force accuracy = 1.94166e-05
  estimated relative force accuracy = 1.34841e-06
  KSpace vectors: actual max1d max3d = 2081 10 4630
                  kxmax kymax kzmax  = 10 10 10
Setting up cg style minimization ...
  Unit style: metal
Memory usage per processor = 4.56167 Mbytes
Step Temp E_pair E_mol TotEng Press 
     986           10   -18274.365            0   -18273.064   -8132.4167 
    1000           10   -18274.391            0    -18273.09   -8187.8462 
    1005           10   -18274.392            0    -18273.09   -8182.0668 
Loop time of 0.364315 on 12 procs for 19 steps with 1008 atoms

99.8% CPU use with 12 MPI tasks x no OpenMP threads

Minimization stats:
  Stopping criterion = linesearch alpha is zero
  Energy initial, next-to-last, final = 
        -18274.3654881     -18274.3920148     -18274.3920148
  Force two-norm initial, final = 0.838211 0.0671636
  Force max component initial, final = 0.0872257 0.0065647
  Final line search alpha, max atom move = 1.90735e-06 1.25212e-08
  Iterations, force evaluations = 19 107

MPI task timing breakdown:
Section |  min time  |  avg time  |  max time  |%varavg| %total
---------------------------------------------------------------
Pair    | 0.10858    | 0.122      | 0.13037    |   1.7 | 33.49
Kspace  | 0.18276    | 0.1922     | 0.19746    |   0.8 | 52.76
Neigh   | 0          | 0          | 0          |   0.0 |  0.00
Comm    | 0.030103   | 0.038326   | 0.056163   |   3.3 | 10.52
Output  | 3.9101e-05 | 4.1763e-05 | 4.9114e-05 |   0.0 |  0.01
Modify  | 0          | 0          | 0          |   0.0 |  0.00
Other   |            | 0.01175    |            |       |  3.22

Nlocal:    84 ave 87 max 77 min
Histogram: 1 0 0 0 0 2 1 3 1 4
Nghost:    2605.83 ave 2639 max 2575 min
Histogram: 2 0 2 0 2 2 0 2 1 1
Neighs:    18636.2 ave 19435 max 16984 min
Histogram: 1 0 0 0 1 2 3 0 2 3

Total # of neighbors = 223634
Ave neighs/atom = 221.859
Neighbor list builds = 0
Dangerous builds = 0
CR_UPDATE- 23.300680	23.300680	23.300680	0.000000	0.000000	0.000000
For k = 6, applying strain of 1.005
Changing box ...
  triclinic box = (0 0 0) to (23.3007 23.3007 23.3007) with tilt (0 0 0.116503)
WARNING: Resetting reneighboring criteria during minimization (../min.cpp:168)
Ewald initialization ...
  G vector (1/distance) = 0.365055
  estimated absolute RMS force accuracy = 1.94166e-05
  estimated relative force accuracy = 1.34841e-06
  KSpace vectors: actual max1d max3d = 2079 10 4630
                  kxmax kymax kzmax  = 10 10 10
Setting up cg style minimization ...
  Unit style: metal
Memory usage per processor = 4.56167 Mbytes
Step Temp E_pair E_mol TotEng Press 
    1005           10   -18274.258            0   -18272.956   -8131.9692 
    1018           10   -18274.312            0    -18273.01   -8232.7442 
Loop time of 0.22053 on 12 procs for 13 steps with 1008 atoms

99.9% CPU use with 12 MPI tasks x no OpenMP threads

Minimization stats:
  Stopping criterion = linesearch alpha is zero
  Energy initial, next-to-last, final = 
        -18274.2578355     -18274.3120857     -18274.3120857
  Force two-norm initial, final = 1.25764 0.16064
  Force max component initial, final = 0.130866 0.0122964
  Final line search alpha, max atom move = 4.76837e-07 5.86337e-09
  Iterations, force evaluations = 13 67

MPI task timing breakdown:
Section |  min time  |  avg time  |  max time  |%varavg| %total
---------------------------------------------------------------
Pair    | 0.066255   | 0.075354   | 0.080196   |   1.3 | 34.17
Kspace  | 0.11307    | 0.1196     | 0.12287    |   0.7 | 54.23
Neigh   | 0          | 0          | 0          |   0.0 |  0.00
Comm    | 0.014851   | 0.019734   | 0.031422   |   3.1 |  8.95
Output  | 0          | 0          | 0          |   0.0 |  0.00
Modify  | 0          | 0          | 0          |   0.0 |  0.00
Other   |            | 0.005845   |            |       |  2.65

Nlocal:    84 ave 87 max 77 min
Histogram: 1 0 0 0 0 2 1 3 1 4
Nghost:    2605.83 ave 2639 max 2575 min
Histogram: 2 0 2 0 2 2 0 2 1 1
Neighs:    18633.9 ave 19431 max 16978 min
Histogram: 1 0 0 0 1 2 3 0 2 3

Total # of neighbors = 223607
Ave neighs/atom = 221.832
Neighbor list builds = 0
Dangerous builds = 0
Total wall time: 0:00:18
Done.
