LAMMPS (7 Dec 2015)
# Tantala heating to find melting temp. and glass transition temp.
# Intervals of 400 K (starting at 0 K) to be merged with the date from the even directory (also has intervals of 400 K starting at 200 K)
# Including rdf compute and initial velocity seed
# I've written a loop that makes melting/cooling simulation codes less tedious (In test directory input file)

# Initialization

units		metal
atom_style	charge
dimension	3
boundary	p p p

# Optional

neighbor	1.0 nsq
neigh_modify	every 1 delay 1 check yes

# Defining atomic system (896 atoms)

read_data	min1.dat
  triclinic box = (0 0 0) to (23.3007 23.3007 23.3007) with tilt (0 0 0)
  2 by 2 by 3 MPI processor grid
  reading atoms ...
  1008 atoms

# Potential

kspace_style	ewald 1.0e-6
#For low-temperature simulations, comment out the following line
#pair_style	hybrid/overlay lj246/cut 10 buck/coul/long 10 morse 10
#For low-temperature simulations, un-comment the following line
pair_style      hybrid/overlay buck/coul/long 10 morse 10

pair_coeff      1 2 buck/coul/long 100067.01 0.1319 6.05
pair_coeff      2 2 buck/coul/long 1388.773 0.3623188 175.0000
pair_coeff      1 1 buck/coul/long 0.00000000 1.0000000 0.000000
pair_coeff	2 3 buck/coul/long 17243.00 0.2265 128.35
pair_coeff      1 3 buck/coul/long 0.00000000 1.0000000 0.000000
pair_coeff      3 3 buck/coul/long 0.00000000 1.0000000 0.000000
pair_coeff 	1 2 morse 	   0.3789 1.6254 2.5445
#Remove these lines if running low-temperature simulation
#pair_coeff      1 2 lj246/cut	   0.01 0.51
#pair_coeff	2 2 lj246/cut 	   0.00035653 1.9000

# MD parameters

#1 fs timestep
timestep 0.001
thermo		50

fix		1 all nvt temp 10 10 0.1
velocity	all create 10 26684

load_tls min1.dump 1 0
  triclinic box = (0 0 0) to (23.3007 23.3007 23.3007) with tilt (0 0 0)
  1008 atoms before read
  1008 atoms in snapshot
  0 atoms purged
  1008 atoms replaced
  0 atoms trimmed
  0 atoms added
  1008 atoms after read
load_tls min2.dump 2 0
  triclinic box = (0 0 0) to (23.3007 23.3007 23.3007) with tilt (0 0 0)
  1008 atoms before read
  1008 atoms in snapshot
  0 atoms purged
  1008 atoms replaced
  0 atoms trimmed
  0 atoms added
  1008 atoms after read
couple_elastic 0.005 linear
  triclinic box = (0.0582517 0 0) to (23.2424 23.3007 23.3007) with tilt (0 0 0)
WARNING: Resetting reneighboring criteria during minimization (../min.cpp:168)
Ewald initialization ...
  G vector (1/distance) = 0.365089
  estimated absolute RMS force accuracy = 1.92191e-05
  estimated relative force accuracy = 1.33469e-06
  KSpace vectors: actual max1d max3d = 2088 10 4630
                  kxmax kymax kzmax  = 10 10 10
Neighbor list info ...
  2 neighbor list requests
  update every 1 steps, delay 0 steps, check yes
  max neighbors/atom: 2000, page size: 100000
  master list distance cutoff = 11
  ghost atom cutoff = 11
Memory usage per processor = 4.56269 Mbytes
Step Temp E_pair E_mol TotEng Press 
       0           10   -18273.653            0   -18272.351    3865.9818 
      23           10   -18273.808            0   -18272.506    109.24646 
Loop time of 0.281809 on 12 procs for 23 steps with 1008 atoms

99.6% CPU use with 12 MPI tasks x no OpenMP threads

Minimization stats:
  Stopping criterion = linesearch alpha is zero
  Energy initial, next-to-last, final = 
        -18273.6528173     -18273.8078047     -18273.8078047
  Force two-norm initial, final = 1.82841 0.124276
  Force max component initial, final = 0.160398 0.0135645
  Final line search alpha, max atom move = 4.76837e-07 6.46807e-09
  Iterations, force evaluations = 23 87

MPI task timing breakdown:
Section |  min time  |  avg time  |  max time  |%varavg| %total
---------------------------------------------------------------
Pair    | 0.092016   | 0.10424    | 0.11115    |   1.9 | 36.99
Kspace  | 0.15342    | 0.15718    | 0.15897    |   0.4 | 55.78
Neigh   | 0          | 0          | 0          |   0.0 |  0.00
Comm    | 0.010501   | 0.017549   | 0.029136   |   4.4 |  6.23
Output  | 0          | 0          | 0          |   0.0 |  0.00
Modify  | 0          | 0          | 0          |   0.0 |  0.00
Other   |            | 0.002844   |            |       |  1.01

Nlocal:    84 ave 88 max 80 min
Histogram: 1 1 1 2 0 3 1 0 2 1
Nghost:    2626 ave 2649 max 2603 min
Histogram: 3 0 1 1 1 1 0 1 2 2
Neighs:    18722.3 ave 19695 max 17747 min
Histogram: 1 1 0 3 1 2 1 0 2 1

Total # of neighbors = 224668
Ave neighs/atom = 222.885
Neighbor list builds = 0
Dangerous builds = 0
  triclinic box = (0.0388306 0 0) to (23.2618 23.3007 23.3007) with tilt (0 0 0)
WARNING: Resetting reneighboring criteria during minimization (../min.cpp:168)
Ewald initialization ...
  G vector (1/distance) = 0.365078
  estimated absolute RMS force accuracy = 1.92793e-05
  estimated relative force accuracy = 1.33888e-06
  KSpace vectors: actual max1d max3d = 2084 10 4630
                  kxmax kymax kzmax  = 10 10 10
Memory usage per processor = 4.56269 Mbytes
Step Temp E_pair E_mol TotEng Press 
      23           10   -18273.787            0   -18272.485     250.9008 
      48           10   -18273.856            0   -18272.555   -2239.7832 
Loop time of 0.279664 on 12 procs for 25 steps with 1008 atoms

99.7% CPU use with 12 MPI tasks x no OpenMP threads

Minimization stats:
  Stopping criterion = linesearch alpha is zero
  Energy initial, next-to-last, final = 
        -18273.7867579     -18273.8564428     -18273.8564428
  Force two-norm initial, final = 1.21123 0.0729223
  Force max component initial, final = 0.105886 0.00665629
  Final line search alpha, max atom move = 1.90735e-06 1.26959e-08
  Iterations, force evaluations = 25 87

MPI task timing breakdown:
Section |  min time  |  avg time  |  max time  |%varavg| %total
---------------------------------------------------------------
Pair    | 0.090044   | 0.10405    | 0.111      |   1.9 | 37.20
Kspace  | 0.15306    | 0.15601    | 0.15855    |   0.4 | 55.79
Neigh   | 0          | 0          | 0          |   0.0 |  0.00
Comm    | 0.0097537  | 0.016883   | 0.028003   |   4.5 |  6.04
Output  | 0          | 0          | 0          |   0.0 |  0.00
Modify  | 0          | 0          | 0          |   0.0 |  0.00
Other   |            | 0.00272    |            |       |  0.97

Nlocal:    84 ave 88 max 80 min
Histogram: 1 1 1 2 0 3 1 0 2 1
Nghost:    2623 ave 2644 max 2601 min
Histogram: 3 0 0 2 1 1 0 1 2 2
Neighs:    18692.2 ave 19653 max 17712 min
Histogram: 1 1 0 3 1 2 1 0 2 1

Total # of neighbors = 224307
Ave neighs/atom = 222.527
Neighbor list builds = 0
Dangerous builds = 0
  triclinic box = (0.0194211 0 0) to (23.2813 23.3007 23.3007) with tilt (0 0 0)
WARNING: Resetting reneighboring criteria during minimization (../min.cpp:168)
Ewald initialization ...
  G vector (1/distance) = 0.365066
  estimated absolute RMS force accuracy = 1.9345e-05
  estimated relative force accuracy = 1.34344e-06
  KSpace vectors: actual max1d max3d = 2084 10 4630
                  kxmax kymax kzmax  = 10 10 10
Memory usage per processor = 4.56269 Mbytes
Step Temp E_pair E_mol TotEng Press 
      48           10   -18273.833            0   -18272.531   -3323.3875 
      50           10   -18273.843            0   -18272.541   -3951.6147 
      59           10   -18273.849            0   -18272.547   -4430.1391 
Loop time of 0.199225 on 12 procs for 11 steps with 1008 atoms

99.9% CPU use with 12 MPI tasks x no OpenMP threads

Minimization stats:
  Stopping criterion = linesearch alpha is zero
  Energy initial, next-to-last, final = 
        -18273.8328008     -18273.8488118     -18273.8488118
  Force two-norm initial, final = 0.601624 0.0972045
  Force max component initial, final = 0.0524255 0.00798268
  Final line search alpha, max atom move = 9.53674e-07 7.61288e-09
  Iterations, force evaluations = 11 61

MPI task timing breakdown:
Section |  min time  |  avg time  |  max time  |%varavg| %total
---------------------------------------------------------------
Pair    | 0.064094   | 0.073782   | 0.079014   |   1.7 | 37.03
Kspace  | 0.1089     | 0.11099    | 0.11275    |   0.3 | 55.71
Neigh   | 0          | 0          | 0          |   0.0 |  0.00
Comm    | 0.0076854  | 0.012636   | 0.02034    |   3.5 |  6.34
Output  | 3.7909e-05 | 3.9836e-05 | 4.4107e-05 |   0.0 |  0.02
Modify  | 0          | 0          | 0          |   0.0 |  0.00
Other   |            | 0.001781   |            |       |  0.89

Nlocal:    84 ave 88 max 80 min
Histogram: 1 1 1 2 0 3 1 0 2 1
Nghost:    2616.25 ave 2640 max 2592 min
Histogram: 2 1 2 1 0 1 0 1 2 2
Neighs:    18661.2 ave 19623 max 17680 min
Histogram: 1 1 0 3 1 2 1 0 2 1

Total # of neighbors = 223935
Ave neighs/atom = 222.158
Neighbor list builds = 0
Dangerous builds = 0
  triclinic box = (0 0 0) to (23.3007 23.3007 23.3007) with tilt (0 0 0)
WARNING: Resetting reneighboring criteria during minimization (../min.cpp:168)
Ewald initialization ...
  G vector (1/distance) = 0.365055
  estimated absolute RMS force accuracy = 1.94166e-05
  estimated relative force accuracy = 1.34841e-06
  KSpace vectors: actual max1d max3d = 2084 10 4630
                  kxmax kymax kzmax  = 10 10 10
Memory usage per processor = 4.56269 Mbytes
Step Temp E_pair E_mol TotEng Press 
      59           10   -18273.795            0   -18272.493   -6862.1231 
      61           10   -18273.795            0   -18272.493   -6859.7984 
Loop time of 0.0831823 on 12 procs for 2 steps with 1008 atoms

100.4% CPU use with 12 MPI tasks x no OpenMP threads

Minimization stats:
  Stopping criterion = linesearch alpha is zero
  Energy initial, next-to-last, final = 
        -18273.7946975     -18273.7947007     -18273.7947007
  Force two-norm initial, final = 0.00476106 0.00318501
  Force max component initial, final = 0.000354564 0.000278131
  Final line search alpha, max atom move = 0.000976562 2.71612e-07
  Iterations, force evaluations = 2 25

MPI task timing breakdown:
Section |  min time  |  avg time  |  max time  |%varavg| %total
---------------------------------------------------------------
Pair    | 0.027082   | 0.03095    | 0.032896   |   1.0 | 37.21
Kspace  | 0.044694   | 0.04625    | 0.047068   |   0.3 | 55.60
Neigh   | 0          | 0          | 0          |   0.0 |  0.00
Comm    | 0.003165   | 0.0052287  | 0.0084944  |   2.3 |  6.29
Output  | 0          | 0          | 0          |   0.0 |  0.00
Modify  | 0          | 0          | 0          |   0.0 |  0.00
Other   |            | 0.0007528  |            |       |  0.91

Nlocal:    84 ave 88 max 80 min
Histogram: 1 1 1 2 0 3 1 0 2 1
Nghost:    2611.5 ave 2632 max 2590 min
Histogram: 2 1 1 1 1 1 1 0 2 2
Neighs:    18629.7 ave 19581 max 17651 min
Histogram: 1 1 0 2 2 2 1 0 2 1

Total # of neighbors = 223556
Ave neighs/atom = 221.782
Neighbor list builds = 0
Dangerous builds = 0
  triclinic box = (-0.0194211 0 0) to (23.3201 23.3007 23.3007) with tilt (0 0 0)
WARNING: Resetting reneighboring criteria during minimization (../min.cpp:168)
Ewald initialization ...
  G vector (1/distance) = 0.365044
  estimated absolute RMS force accuracy = 1.94944e-05
  estimated relative force accuracy = 1.35381e-06
  KSpace vectors: actual max1d max3d = 2084 10 4630
                  kxmax kymax kzmax  = 10 10 10
Memory usage per processor = 4.56269 Mbytes
Step Temp E_pair E_mol TotEng Press 
      61           10   -18273.673            0   -18272.371   -10363.464 
      71           10   -18273.687            0   -18272.386   -9266.3127 
Loop time of 0.190702 on 12 procs for 10 steps with 1008 atoms

99.6% CPU use with 12 MPI tasks x no OpenMP threads

Minimization stats:
  Stopping criterion = linesearch alpha is zero
  Energy initial, next-to-last, final = 
        -18273.6728647     -18273.6873893     -18273.6873893
  Force two-norm initial, final = 0.59754 0.108298
  Force max component initial, final = 0.0516139 0.00868832
  Final line search alpha, max atom move = 9.53674e-07 8.28583e-09
  Iterations, force evaluations = 10 59

MPI task timing breakdown:
Section |  min time  |  avg time  |  max time  |%varavg| %total
---------------------------------------------------------------
Pair    | 0.061316   | 0.070888   | 0.075337   |   1.6 | 37.17
Kspace  | 0.10391    | 0.10621    | 0.10757    |   0.3 | 55.70
Neigh   | 0          | 0          | 0          |   0.0 |  0.00
Comm    | 0.006933   | 0.011689   | 0.019649   |   3.6 |  6.13
Output  | 0          | 0          | 0          |   0.0 |  0.00
Modify  | 0          | 0          | 0          |   0.0 |  0.00
Other   |            | 0.001913   |            |       |  1.00

Nlocal:    84 ave 88 max 80 min
Histogram: 1 1 1 2 0 3 1 0 2 1
Nghost:    2605.08 ave 2624 max 2586 min
Histogram: 3 0 2 0 1 1 0 1 2 2
Neighs:    18601.2 ave 19543 max 17627 min
Histogram: 1 1 0 2 2 2 1 0 2 1

Total # of neighbors = 223215
Ave neighs/atom = 221.443
Neighbor list builds = 0
Dangerous builds = 0
  triclinic box = (-0.0388306 0 0) to (23.3395 23.3007 23.3007) with tilt (0 0 0)
WARNING: Resetting reneighboring criteria during minimization (../min.cpp:168)
Ewald initialization ...
  G vector (1/distance) = 0.365032
  estimated absolute RMS force accuracy = 1.95788e-05
  estimated relative force accuracy = 1.35968e-06
  KSpace vectors: actual max1d max3d = 2084 10 4630
                  kxmax kymax kzmax  = 10 10 10
Memory usage per processor = 4.56269 Mbytes
Step Temp E_pair E_mol TotEng Press 
      71           10   -18273.465            0   -18272.164   -13824.918 
      89           10   -18273.532            0    -18272.23   -11455.227 
Loop time of 0.241934 on 12 procs for 18 steps with 1008 atoms

99.9% CPU use with 12 MPI tasks x no OpenMP threads

Minimization stats:
  Stopping criterion = linesearch alpha is zero
  Energy initial, next-to-last, final = 
        -18273.4654862     -18273.5319531     -18273.5319531
  Force two-norm initial, final = 1.18665 0.11182
  Force max component initial, final = 0.102158 0.0160866
  Final line search alpha, max atom move = 9.53674e-07 1.53414e-08
  Iterations, force evaluations = 18 75

MPI task timing breakdown:
Section |  min time  |  avg time  |  max time  |%varavg| %total
---------------------------------------------------------------
Pair    | 0.077443   | 0.089705   | 0.095631   |   1.8 | 37.08
Kspace  | 0.13298    | 0.13527    | 0.137      |   0.3 | 55.91
Neigh   | 0          | 0          | 0          |   0.0 |  0.00
Comm    | 0.0085564  | 0.014675   | 0.024914   |   4.1 |  6.07
Output  | 0          | 0          | 0          |   0.0 |  0.00
Modify  | 0          | 0          | 0          |   0.0 |  0.00
Other   |            | 0.002286   |            |       |  0.94

Nlocal:    84 ave 88 max 80 min
Histogram: 1 1 1 2 0 3 1 0 2 1
Nghost:    2603.08 ave 2622 max 2586 min
Histogram: 3 0 0 3 1 0 1 1 1 2
Neighs:    18572.5 ave 19515 max 17610 min
Histogram: 1 1 0 3 1 2 1 0 2 1

Total # of neighbors = 222870
Ave neighs/atom = 221.101
Neighbor list builds = 0
Dangerous builds = 0
  triclinic box = (-0.0582517 0 0) to (23.3589 23.3007 23.3007) with tilt (0 0 0)
WARNING: Resetting reneighboring criteria during minimization (../min.cpp:168)
Ewald initialization ...
  G vector (1/distance) = 0.365021
  estimated absolute RMS force accuracy = 1.96704e-05
  estimated relative force accuracy = 1.36604e-06
  KSpace vectors: actual max1d max3d = 2084 10 4630
                  kxmax kymax kzmax  = 10 10 10
Memory usage per processor = 4.56269 Mbytes
Step Temp E_pair E_mol TotEng Press 
      89           10   -18273.181            0    -18271.88   -17253.229 
     100           10   -18273.319            0   -18272.018   -13929.715 
     109           10   -18273.328            0   -18272.027     -13701.6 
Loop time of 0.261743 on 12 procs for 20 steps with 1008 atoms

100.0% CPU use with 12 MPI tasks x no OpenMP threads

Minimization stats:
  Stopping criterion = linesearch alpha is zero
  Energy initial, next-to-last, final = 
        -18273.1814735     -18273.3283669     -18273.3283669
  Force two-norm initial, final = 1.76938 0.13556
  Force max component initial, final = 0.151786 0.0108984
  Final line search alpha, max atom move = 4.76837e-07 5.19678e-09
  Iterations, force evaluations = 20 81

MPI task timing breakdown:
Section |  min time  |  avg time  |  max time  |%varavg| %total
---------------------------------------------------------------
Pair    | 0.085276   | 0.097231   | 0.10381    |   1.9 | 37.15
Kspace  | 0.14253    | 0.1464     | 0.14898    |   0.4 | 55.93
Neigh   | 0          | 0          | 0          |   0.0 |  0.00
Comm    | 0.0092273  | 0.015623   | 0.026094   |   4.2 |  5.97
Output  | 3.6955e-05 | 3.8842e-05 | 4.4107e-05 |   0.0 |  0.01
Modify  | 0          | 0          | 0          |   0.0 |  0.00
Other   |            | 0.002452   |            |       |  0.94

Nlocal:    84 ave 88 max 80 min
Histogram: 1 1 1 2 0 3 1 0 2 1
Nghost:    2597.67 ave 2619 max 2576 min
Histogram: 2 1 0 2 2 0 1 1 2 1
Neighs:    18539.2 ave 19475 max 17584 min
Histogram: 2 0 0 3 1 2 1 0 2 1

Total # of neighbors = 222471
Ave neighs/atom = 220.705
Neighbor list builds = 0
Dangerous builds = 0
  triclinic box = (0 0.0582517 0) to (23.3007 23.2424 23.3007) with tilt (0 0 0)
WARNING: Resetting reneighboring criteria during minimization (../min.cpp:168)
Ewald initialization ...
  G vector (1/distance) = 0.365089
  estimated absolute RMS force accuracy = 1.92191e-05
  estimated relative force accuracy = 1.33469e-06
  KSpace vectors: actual max1d max3d = 2088 10 4630
                  kxmax kymax kzmax  = 10 10 10
Memory usage per processor = 4.56269 Mbytes
Step Temp E_pair E_mol TotEng Press 
     109           10   -18273.876            0   -18272.575     3857.846 
     132           10   -18274.021            0    -18272.72    340.88491 
Loop time of 0.279767 on 12 procs for 23 steps with 1008 atoms

99.9% CPU use with 12 MPI tasks x no OpenMP threads

Minimization stats:
  Stopping criterion = linesearch alpha is zero
  Energy initial, next-to-last, final = 
        -18273.8762961     -18274.0211636     -18274.0211636
  Force two-norm initial, final = 1.74444 0.121057
  Force max component initial, final = 0.165811 0.0134066
  Final line search alpha, max atom move = 4.76837e-07 6.39276e-09
  Iterations, force evaluations = 23 87

MPI task timing breakdown:
Section |  min time  |  avg time  |  max time  |%varavg| %total
---------------------------------------------------------------
Pair    | 0.091242   | 0.10438    | 0.11096    |   1.9 | 37.31
Kspace  | 0.15212    | 0.15583    | 0.15749    |   0.4 | 55.70
Neigh   | 0          | 0          | 0          |   0.0 |  0.00
Comm    | 0.0098033  | 0.016965   | 0.028126   |   4.5 |  6.06
Output  | 0          | 0          | 0          |   0.0 |  0.00
Modify  | 0          | 0          | 0          |   0.0 |  0.00
Other   |            | 0.002593   |            |       |  0.93

Nlocal:    84 ave 88 max 80 min
Histogram: 1 1 1 2 0 3 1 0 2 1
Nghost:    2624.75 ave 2646 max 2603 min
Histogram: 3 0 2 1 0 1 1 0 0 4
Neighs:    18721.3 ave 19696 max 17735 min
Histogram: 1 1 0 3 1 2 1 0 2 1

Total # of neighbors = 224656
Ave neighs/atom = 222.873
Neighbor list builds = 0
Dangerous builds = 0
  triclinic box = (0 0.0388306 0) to (23.3007 23.2618 23.3007) with tilt (0 0 0)
WARNING: Resetting reneighboring criteria during minimization (../min.cpp:168)
Ewald initialization ...
  G vector (1/distance) = 0.365078
  estimated absolute RMS force accuracy = 1.92793e-05
  estimated relative force accuracy = 1.33888e-06
  KSpace vectors: actual max1d max3d = 2084 10 4630
                  kxmax kymax kzmax  = 10 10 10
Memory usage per processor = 4.56269 Mbytes
Step Temp E_pair E_mol TotEng Press 
     132           10   -18273.933            0   -18272.631    245.89712 
     145           10   -18273.995            0   -18272.694   -1915.3128 
Loop time of 0.224526 on 12 procs for 13 steps with 1008 atoms

99.7% CPU use with 12 MPI tasks x no OpenMP threads

Minimization stats:
  Stopping criterion = linesearch alpha is zero
  Energy initial, next-to-last, final = 
        -18273.9327268     -18273.9954657     -18273.9954657
  Force two-norm initial, final = 1.15579 0.174977
  Force max component initial, final = 0.109487 0.0276955
  Final line search alpha, max atom move = 2.38419e-07 6.60312e-09
  Iterations, force evaluations = 13 69

MPI task timing breakdown:
Section |  min time  |  avg time  |  max time  |%varavg| %total
---------------------------------------------------------------
Pair    | 0.072477   | 0.083112   | 0.089616   |   1.8 | 37.02
Kspace  | 0.12292    | 0.12537    | 0.12706    |   0.4 | 55.84
Neigh   | 0          | 0          | 0          |   0.0 |  0.00
Comm    | 0.0080955  | 0.013865   | 0.023313   |   4.1 |  6.18
Output  | 0          | 0          | 0          |   0.0 |  0.00
Modify  | 0          | 0          | 0          |   0.0 |  0.00
Other   |            | 0.00218    |            |       |  0.97

Nlocal:    84 ave 88 max 80 min
Histogram: 1 1 1 2 0 3 1 0 2 1
Nghost:    2619.42 ave 2641 max 2598 min
Histogram: 3 1 0 2 0 0 2 0 2 2
Neighs:    18691.9 ave 19660 max 17715 min
Histogram: 1 1 0 3 1 2 1 0 2 1

Total # of neighbors = 224303
Ave neighs/atom = 222.523
Neighbor list builds = 0
Dangerous builds = 0
  triclinic box = (0 0.0194211 0) to (23.3007 23.2813 23.3007) with tilt (0 0 0)
WARNING: Resetting reneighboring criteria during minimization (../min.cpp:168)
Ewald initialization ...
  G vector (1/distance) = 0.365066
  estimated absolute RMS force accuracy = 1.9345e-05
  estimated relative force accuracy = 1.34344e-06
  KSpace vectors: actual max1d max3d = 2084 10 4630
                  kxmax kymax kzmax  = 10 10 10
Memory usage per processor = 4.56269 Mbytes
Step Temp E_pair E_mol TotEng Press 
     145           10   -18273.907            0   -18272.605   -3326.3319 
     150           10    -18273.92            0   -18272.618   -4204.5025 
     153           10   -18273.922            0    -18272.62   -4310.0164 
Loop time of 0.186352 on 12 procs for 8 steps with 1008 atoms

99.6% CPU use with 12 MPI tasks x no OpenMP threads

Minimization stats:
  Stopping criterion = linesearch alpha is zero
  Energy initial, next-to-last, final = 
        -18273.9071274     -18273.9216599     -18273.9216599
  Force two-norm initial, final = 0.574136 0.138273
  Force max component initial, final = 0.0542252 0.0115176
  Final line search alpha, max atom move = 4.76837e-07 5.49202e-09
  Iterations, force evaluations = 8 57

MPI task timing breakdown:
Section |  min time  |  avg time  |  max time  |%varavg| %total
---------------------------------------------------------------
Pair    | 0.059431   | 0.068687   | 0.073805   |   1.6 | 36.86
Kspace  | 0.10031    | 0.10364    | 0.10537    |   0.5 | 55.61
Neigh   | 0          | 0          | 0          |   0.0 |  0.00
Comm    | 0.0076904  | 0.012355   | 0.020054   |   3.6 |  6.63
Output  | 3.9101e-05 | 4.1187e-05 | 4.8876e-05 |   0.0 |  0.02
Modify  | 0          | 0          | 0          |   0.0 |  0.00
Other   |            | 0.001629   |            |       |  0.87

Nlocal:    84 ave 88 max 80 min
Histogram: 1 1 1 2 0 3 1 0 2 1
Nghost:    2614.5 ave 2636 max 2592 min
Histogram: 2 1 1 1 1 0 2 0 2 2
Neighs:    18659.8 ave 19618 max 17681 min
Histogram: 1 1 0 3 1 2 1 0 2 1

Total # of neighbors = 223918
Ave neighs/atom = 222.141
Neighbor list builds = 0
Dangerous builds = 0
  triclinic box = (0 0 0) to (23.3007 23.3007 23.3007) with tilt (0 0 0)
WARNING: Resetting reneighboring criteria during minimization (../min.cpp:168)
Ewald initialization ...
  G vector (1/distance) = 0.365055
  estimated absolute RMS force accuracy = 1.94166e-05
  estimated relative force accuracy = 1.34841e-06
  KSpace vectors: actual max1d max3d = 2084 10 4630
                  kxmax kymax kzmax  = 10 10 10
Memory usage per processor = 4.56269 Mbytes
Step Temp E_pair E_mol TotEng Press 
     153           10   -18273.795            0   -18272.493   -6862.1231 
     155           10   -18273.795            0   -18272.493   -6859.7984 
Loop time of 0.0831956 on 12 procs for 2 steps with 1008 atoms

100.0% CPU use with 12 MPI tasks x no OpenMP threads

Minimization stats:
  Stopping criterion = linesearch alpha is zero
  Energy initial, next-to-last, final = 
        -18273.7946975     -18273.7947007     -18273.7947007
  Force two-norm initial, final = 0.00476106 0.00318501
  Force max component initial, final = 0.000354564 0.000278131
  Final line search alpha, max atom move = 0.000976562 2.71612e-07
  Iterations, force evaluations = 2 25

MPI task timing breakdown:
Section |  min time  |  avg time  |  max time  |%varavg| %total
---------------------------------------------------------------
Pair    | 0.026656   | 0.030974   | 0.033128   |   1.1 | 37.23
Kspace  | 0.04535    | 0.046406   | 0.047546   |   0.3 | 55.78
Neigh   | 0          | 0          | 0          |   0.0 |  0.00
Comm    | 0.0029852  | 0.005066   | 0.0083151  |   2.4 |  6.09
Output  | 0          | 0          | 0          |   0.0 |  0.00
Modify  | 0          | 0          | 0          |   0.0 |  0.00
Other   |            | 0.0007496  |            |       |  0.90

Nlocal:    84 ave 88 max 80 min
Histogram: 1 1 1 2 0 3 1 0 2 1
Nghost:    2611.5 ave 2632 max 2590 min
Histogram: 2 1 1 1 1 1 1 0 2 2
Neighs:    18629.7 ave 19581 max 17651 min
Histogram: 1 1 0 2 2 2 1 0 2 1

Total # of neighbors = 223556
Ave neighs/atom = 221.782
Neighbor list builds = 0
Dangerous builds = 0
  triclinic box = (0 -0.0194211 0) to (23.3007 23.3201 23.3007) with tilt (0 0 0)
WARNING: Resetting reneighboring criteria during minimization (../min.cpp:168)
Ewald initialization ...
  G vector (1/distance) = 0.365044
  estimated absolute RMS force accuracy = 1.94944e-05
  estimated relative force accuracy = 1.35381e-06
  KSpace vectors: actual max1d max3d = 2084 10 4630
                  kxmax kymax kzmax  = 10 10 10
Memory usage per processor = 4.56269 Mbytes
Step Temp E_pair E_mol TotEng Press 
     155           10   -18273.601            0   -18272.299   -10360.879 
     165           10   -18273.617            0   -18272.315   -9327.5582 
Loop time of 0.191611 on 12 procs for 10 steps with 1008 atoms

100.0% CPU use with 12 MPI tasks x no OpenMP threads

Minimization stats:
  Stopping criterion = linesearch alpha is zero
  Energy initial, next-to-last, final = 
        -18273.6010261     -18273.6171028     -18273.6171028
  Force two-norm initial, final = 0.570813 0.111761
  Force max component initial, final = 0.0532989 0.0115232
  Final line search alpha, max atom move = 9.53674e-07 1.09894e-08
  Iterations, force evaluations = 10 59

MPI task timing breakdown:
Section |  min time  |  avg time  |  max time  |%varavg| %total
---------------------------------------------------------------
Pair    | 0.062276   | 0.071214   | 0.075691   |   1.5 | 37.17
Kspace  | 0.10391    | 0.10658    | 0.10812    |   0.3 | 55.62
Neigh   | 0          | 0          | 0          |   0.0 |  0.00
Comm    | 0.0073154  | 0.012012   | 0.019124   |   3.4 |  6.27
Output  | 0          | 0          | 0          |   0.0 |  0.00
Modify  | 0          | 0          | 0          |   0.0 |  0.00
Other   |            | 0.001802   |            |       |  0.94

Nlocal:    84 ave 88 max 80 min
Histogram: 1 1 1 2 0 3 1 0 2 1
Nghost:    2607.75 ave 2630 max 2588 min
Histogram: 3 0 2 2 0 0 0 2 1 2
Neighs:    18599 ave 19539 max 17628 min
Histogram: 1 1 0 3 1 2 1 0 2 1

Total # of neighbors = 223188
Ave neighs/atom = 221.417
Neighbor list builds = 0
Dangerous builds = 0
  triclinic box = (0 -0.0388306 0) to (23.3007 23.3395 23.3007) with tilt (0 0 0)
WARNING: Resetting reneighboring criteria during minimization (../min.cpp:168)
Ewald initialization ...
  G vector (1/distance) = 0.365032
  estimated absolute RMS force accuracy = 1.95788e-05
  estimated relative force accuracy = 1.35968e-06
  KSpace vectors: actual max1d max3d = 2084 10 4630
                  kxmax kymax kzmax  = 10 10 10
Memory usage per processor = 4.56269 Mbytes
Step Temp E_pair E_mol TotEng Press 
     165           10   -18273.323            0   -18272.021   -13819.905 
     184           10   -18273.387            0   -18272.085   -11578.378 
Loop time of 0.248514 on 12 procs for 19 steps with 1008 atoms

99.8% CPU use with 12 MPI tasks x no OpenMP threads

Minimization stats:
  Stopping criterion = linesearch alpha is zero
  Energy initial, next-to-last, final = 
        -18273.3231304     -18273.3869056     -18273.3869056
  Force two-norm initial, final = 1.13349 0.108631
  Force max component initial, final = 0.105523 0.0105158
  Final line search alpha, max atom move = 9.53674e-07 1.00286e-08
  Iterations, force evaluations = 19 77

MPI task timing breakdown:
Section |  min time  |  avg time  |  max time  |%varavg| %total
---------------------------------------------------------------
Pair    | 0.079714   | 0.092233   | 0.098619   |   1.8 | 37.11
Kspace  | 0.13522    | 0.13861    | 0.14051    |   0.4 | 55.77
Neigh   | 0          | 0          | 0          |   0.0 |  0.00
Comm    | 0.0091078  | 0.015286   | 0.025541   |   4.2 |  6.15
Output  | 0          | 0          | 0          |   0.0 |  0.00
Modify  | 0          | 0          | 0          |   0.0 |  0.00
Other   |            | 0.002389   |            |       |  0.96

Nlocal:    84 ave 88 max 80 min
Histogram: 1 1 1 2 0 3 1 0 2 1
Nghost:    2602.08 ave 2626 max 2579 min
Histogram: 1 2 2 0 2 0 0 2 2 1
Neighs:    18569.5 ave 19499 max 17612 min
Histogram: 1 1 1 2 1 2 1 0 2 1

Total # of neighbors = 222834
Ave neighs/atom = 221.065
Neighbor list builds = 0
Dangerous builds = 0
  triclinic box = (0 -0.0582517 0) to (23.3007 23.3589 23.3007) with tilt (0 0 0)
WARNING: Resetting reneighboring criteria during minimization (../min.cpp:168)
Ewald initialization ...
  G vector (1/distance) = 0.365021
  estimated absolute RMS force accuracy = 1.96704e-05
  estimated relative force accuracy = 1.36604e-06
  KSpace vectors: actual max1d max3d = 2084 10 4630
                  kxmax kymax kzmax  = 10 10 10
Memory usage per processor = 4.56269 Mbytes
Step Temp E_pair E_mol TotEng Press 
     184           10   -18272.966            0   -18271.664   -17244.688 
     200           10   -18273.104            0   -18271.802    -13940.14 
     210           10   -18273.108            0   -18271.806   -13835.422 
Loop time of 0.414762 on 12 procs for 26 steps with 1008 atoms

99.9% CPU use with 12 MPI tasks x no OpenMP threads

Minimization stats:
  Stopping criterion = linesearch alpha is zero
  Energy initial, next-to-last, final = 
        -18272.9660798     -18273.1081117     -18273.1081117
  Force two-norm initial, final = 1.6905 0.0947848
  Force max component initial, final = 0.156807 0.00935954
  Final line search alpha, max atom move = 9.53674e-07 8.92596e-09
  Iterations, force evaluations = 26 129

MPI task timing breakdown:
Section |  min time  |  avg time  |  max time  |%varavg| %total
---------------------------------------------------------------
Pair    | 0.13314    | 0.15365    | 0.16468    |   2.4 | 37.05
Kspace  | 0.22587    | 0.23196    | 0.23564    |   0.6 | 55.93
Neigh   | 0          | 0          | 0          |   0.0 |  0.00
Comm    | 0.014885   | 0.025337   | 0.041667   |   5.4 |  6.11
Output  | 3.9816e-05 | 4.1445e-05 | 4.8161e-05 |   0.0 |  0.01
Modify  | 0          | 0          | 0          |   0.0 |  0.00
Other   |            | 0.003767   |            |       |  0.91

Nlocal:    84 ave 88 max 80 min
Histogram: 1 1 1 2 0 3 1 0 2 1
Nghost:    2599.58 ave 2624 max 2577 min
Histogram: 1 2 1 3 0 0 0 2 2 1
Neighs:    18538.1 ave 19466 max 17584 min
Histogram: 1 1 1 2 1 2 1 0 2 1

Total # of neighbors = 222457
Ave neighs/atom = 220.691
Neighbor list builds = 0
Dangerous builds = 0
  triclinic box = (0 0 0.0582517) to (23.3007 23.3007 23.2424) with tilt (0 0 0)
WARNING: Resetting reneighboring criteria during minimization (../min.cpp:168)
Ewald initialization ...
  G vector (1/distance) = 0.365089
  estimated absolute RMS force accuracy = 1.92191e-05
  estimated relative force accuracy = 1.33469e-06
  KSpace vectors: actual max1d max3d = 2088 10 4630
                  kxmax kymax kzmax  = 10 10 10
Memory usage per processor = 4.56269 Mbytes
Step Temp E_pair E_mol TotEng Press 
     210           10   -18273.814            0   -18272.513    3603.8959 
     232           10   -18273.966            0   -18272.664    57.186029 
Loop time of 0.274507 on 12 procs for 22 steps with 1008 atoms

100.0% CPU use with 12 MPI tasks x no OpenMP threads

Minimization stats:
  Stopping criterion = linesearch alpha is zero
  Energy initial, next-to-last, final = 
        -18273.8143976     -18273.9658492     -18273.9658492
  Force two-norm initial, final = 1.88649 0.116594
  Force max component initial, final = 0.146596 0.0198218
  Final line search alpha, max atom move = 4.76837e-07 9.45177e-09
  Iterations, force evaluations = 22 85

MPI task timing breakdown:
Section |  min time  |  avg time  |  max time  |%varavg| %total
---------------------------------------------------------------
Pair    | 0.088351   | 0.10229    | 0.10914    |   1.9 | 37.26
Kspace  | 0.1484     | 0.15276    | 0.15562    |   0.5 | 55.65
Neigh   | 0          | 0          | 0          |   0.0 |  0.00
Comm    | 0.0098476  | 0.016847   | 0.027562   |   4.4 |  6.14
Output  | 0          | 0          | 0          |   0.0 |  0.00
Modify  | 0          | 0          | 0          |   0.0 |  0.00
Other   |            | 0.002612   |            |       |  0.95

Nlocal:    84 ave 88 max 80 min
Histogram: 1 1 1 2 0 3 1 0 2 1
Nghost:    2621.5 ave 2643 max 2599 min
Histogram: 2 1 1 1 1 0 1 3 0 2
Neighs:    18725.8 ave 19673 max 17725 min
Histogram: 1 1 0 2 2 2 1 0 2 1

Total # of neighbors = 224710
Ave neighs/atom = 222.927
Neighbor list builds = 0
Dangerous builds = 0
  triclinic box = (0 0 0.0388306) to (23.3007 23.3007 23.2618) with tilt (0 0 0)
WARNING: Resetting reneighboring criteria during minimization (../min.cpp:168)
Ewald initialization ...
  G vector (1/distance) = 0.365078
  estimated absolute RMS force accuracy = 1.92793e-05
  estimated relative force accuracy = 1.33888e-06
  KSpace vectors: actual max1d max3d = 2084 10 4630
                  kxmax kymax kzmax  = 10 10 10
Memory usage per processor = 4.56269 Mbytes
Step Temp E_pair E_mol TotEng Press 
     232           10   -18273.888            0   -18272.586    78.341097 
     242           10   -18273.949            0   -18272.647   -2075.2286 
Loop time of 0.205198 on 12 procs for 10 steps with 1008 atoms

99.8% CPU use with 12 MPI tasks x no OpenMP threads

Minimization stats:
  Stopping criterion = linesearch alpha is zero
  Energy initial, next-to-last, final = 
        -18273.8879803     -18273.9488399     -18273.9488399
  Force two-norm initial, final = 1.25004 0.212422
  Force max component initial, final = 0.0969124 0.0215232
  Final line search alpha, max atom move = 2.38419e-07 5.13153e-09
  Iterations, force evaluations = 10 63

MPI task timing breakdown:
Section |  min time  |  avg time  |  max time  |%varavg| %total
---------------------------------------------------------------
Pair    | 0.065193   | 0.076117   | 0.081568   |   1.7 | 37.09
Kspace  | 0.11144    | 0.11437    | 0.11714    |   0.4 | 55.74
Neigh   | 0          | 0          | 0          |   0.0 |  0.00
Comm    | 0.0077207  | 0.012804   | 0.020641   |   3.7 |  6.24
Output  | 0          | 0          | 0          |   0.0 |  0.00
Modify  | 0          | 0          | 0          |   0.0 |  0.00
Other   |            | 0.001908   |            |       |  0.93

Nlocal:    84 ave 88 max 80 min
Histogram: 1 1 1 2 0 3 1 0 2 1
Nghost:    2619.25 ave 2641 max 2597 min
Histogram: 1 2 0 2 1 1 1 1 1 2
Neighs:    18693.6 ave 19648 max 17698 min
Histogram: 1 1 0 2 2 2 1 0 2 1

Total # of neighbors = 224323
Ave neighs/atom = 222.543
Neighbor list builds = 0
Dangerous builds = 0
  triclinic box = (0 0 0.0194211) to (23.3007 23.3007 23.2813) with tilt (0 0 0)
WARNING: Resetting reneighboring criteria during minimization (../min.cpp:168)
Ewald initialization ...
  G vector (1/distance) = 0.365066
  estimated absolute RMS force accuracy = 1.9345e-05
  estimated relative force accuracy = 1.34344e-06
  KSpace vectors: actual max1d max3d = 2084 10 4630
                  kxmax kymax kzmax  = 10 10 10
Memory usage per processor = 4.56269 Mbytes
Step Temp E_pair E_mol TotEng Press 
     242           10   -18273.882            0    -18272.58   -3408.9744 
     250           10   -18273.897            0   -18272.596   -4451.9322 
     257           10   -18273.899            0   -18272.598   -4529.9931 
Loop time of 0.218083 on 12 procs for 15 steps with 1008 atoms

99.8% CPU use with 12 MPI tasks x no OpenMP threads

Minimization stats:
  Stopping criterion = linesearch alpha is zero
  Energy initial, next-to-last, final = 
        -18273.8815241     -18273.8993306     -18273.8993306
  Force two-norm initial, final = 0.621035 0.0616779
  Force max component initial, final = 0.0480688 0.00671709
  Final line search alpha, max atom move = 1.90735e-06 1.28118e-08
  Iterations, force evaluations = 15 67

MPI task timing breakdown:
Section |  min time  |  avg time  |  max time  |%varavg| %total
---------------------------------------------------------------
Pair    | 0.069623   | 0.080829   | 0.086572   |   1.7 | 37.06
Kspace  | 0.1191     | 0.12166    | 0.12354    |   0.4 | 55.78
Neigh   | 0          | 0          | 0          |   0.0 |  0.00
Comm    | 0.0081553  | 0.013456   | 0.022408   |   3.8 |  6.17
Output  | 3.8862e-05 | 4.0074e-05 | 4.8161e-05 |   0.0 |  0.02
Modify  | 0          | 0          | 0          |   0.0 |  0.00
Other   |            | 0.002102   |            |       |  0.96

Nlocal:    84 ave 88 max 80 min
Histogram: 1 1 1 2 0 3 1 0 2 1
Nghost:    2613.25 ave 2633 max 2593 min
Histogram: 2 1 1 1 1 1 1 0 1 3
Neighs:    18660.5 ave 19617 max 17668 min
Histogram: 1 1 0 2 2 2 1 0 2 1

Total # of neighbors = 223926
Ave neighs/atom = 222.149
Neighbor list builds = 0
Dangerous builds = 0
  triclinic box = (0 0 0) to (23.3007 23.3007 23.3007) with tilt (0 0 0)
WARNING: Resetting reneighboring criteria during minimization (../min.cpp:168)
Ewald initialization ...
  G vector (1/distance) = 0.365055
  estimated absolute RMS force accuracy = 1.94166e-05
  estimated relative force accuracy = 1.34841e-06
  KSpace vectors: actual max1d max3d = 2084 10 4630
                  kxmax kymax kzmax  = 10 10 10
Memory usage per processor = 4.56269 Mbytes
Step Temp E_pair E_mol TotEng Press 
     257           10   -18273.795            0   -18272.493   -6862.1231 
     259           10   -18273.795            0   -18272.493   -6859.7984 
Loop time of 0.083318 on 12 procs for 2 steps with 1008 atoms

99.5% CPU use with 12 MPI tasks x no OpenMP threads

Minimization stats:
  Stopping criterion = linesearch alpha is zero
  Energy initial, next-to-last, final = 
        -18273.7946975     -18273.7947007     -18273.7947007
  Force two-norm initial, final = 0.00476106 0.00318501
  Force max component initial, final = 0.000354564 0.000278131
  Final line search alpha, max atom move = 0.000976562 2.71612e-07
  Iterations, force evaluations = 2 25

MPI task timing breakdown:
Section |  min time  |  avg time  |  max time  |%varavg| %total
---------------------------------------------------------------
Pair    | 0.027026   | 0.031003   | 0.032813   |   0.9 | 37.21
Kspace  | 0.045107   | 0.046266   | 0.046627   |   0.2 | 55.53
Neigh   | 0          | 0          | 0          |   0.0 |  0.00
Comm    | 0.0032115  | 0.0052343  | 0.0088329  |   2.3 |  6.28
Output  | 0          | 0          | 0          |   0.0 |  0.00
Modify  | 0          | 0          | 0          |   0.0 |  0.00
Other   |            | 0.0008141  |            |       |  0.98

Nlocal:    84 ave 88 max 80 min
Histogram: 1 1 1 2 0 3 1 0 2 1
Nghost:    2611.5 ave 2632 max 2590 min
Histogram: 2 1 1 1 1 1 1 0 2 2
Neighs:    18629.7 ave 19581 max 17651 min
Histogram: 1 1 0 2 2 2 1 0 2 1

Total # of neighbors = 223556
Ave neighs/atom = 221.782
Neighbor list builds = 0
Dangerous builds = 0
  triclinic box = (0 0 -0.0194211) to (23.3007 23.3007 23.3201) with tilt (0 0 0)
WARNING: Resetting reneighboring criteria during minimization (../min.cpp:168)
Ewald initialization ...
  G vector (1/distance) = 0.365044
  estimated absolute RMS force accuracy = 1.94944e-05
  estimated relative force accuracy = 1.35381e-06
  KSpace vectors: actual max1d max3d = 2084 10 4630
                  kxmax kymax kzmax  = 10 10 10
Memory usage per processor = 4.56269 Mbytes
Step Temp E_pair E_mol TotEng Press 
     259           10   -18273.623            0   -18272.321   -10277.953 
     266           10   -18273.637            0   -18272.335   -9296.4923 
Loop time of 0.179094 on 12 procs for 7 steps with 1008 atoms

99.9% CPU use with 12 MPI tasks x no OpenMP threads

Minimization stats:
  Stopping criterion = linesearch alpha is zero
  Energy initial, next-to-last, final = 
        -18273.6227923     -18273.6365222     -18273.6365222
  Force two-norm initial, final = 0.617231 0.149553
  Force max component initial, final = 0.0471928 0.0135595
  Final line search alpha, max atom move = 4.76837e-07 6.46567e-09
  Iterations, force evaluations = 7 55

MPI task timing breakdown:
Section |  min time  |  avg time  |  max time  |%varavg| %total
---------------------------------------------------------------
Pair    | 0.0573     | 0.066568   | 0.071021   |   1.5 | 37.17
Kspace  | 0.09755    | 0.099925   | 0.10203    |   0.4 | 55.79
Neigh   | 0          | 0          | 0          |   0.0 |  0.00
Comm    | 0.0066106  | 0.010985   | 0.017897   |   3.4 |  6.13
Output  | 0          | 0          | 0          |   0.0 |  0.00
Modify  | 0          | 0          | 0          |   0.0 |  0.00
Other   |            | 0.001617   |            |       |  0.90

Nlocal:    84 ave 88 max 80 min
Histogram: 1 1 1 2 0 3 1 0 2 1
Nghost:    2607.5 ave 2627 max 2583 min
Histogram: 1 1 1 1 2 1 1 0 0 4
Neighs:    18597.6 ave 19538 max 17624 min
Histogram: 1 1 0 3 1 2 1 0 2 1

Total # of neighbors = 223171
Ave neighs/atom = 221.4
Neighbor list builds = 0
Dangerous builds = 0
  triclinic box = (0 0 -0.0388306) to (23.3007 23.3007 23.3395) with tilt (0 0 0)
WARNING: Resetting reneighboring criteria during minimization (../min.cpp:168)
Ewald initialization ...
  G vector (1/distance) = 0.365032
  estimated absolute RMS force accuracy = 1.95788e-05
  estimated relative force accuracy = 1.35968e-06
  KSpace vectors: actual max1d max3d = 2084 10 4630
                  kxmax kymax kzmax  = 10 10 10
Memory usage per processor = 4.56269 Mbytes
Step Temp E_pair E_mol TotEng Press 
     266           10   -18273.369            0   -18272.067   -13655.374 
     279           10    -18273.43            0   -18272.128   -11464.939 
Loop time of 0.216765 on 12 procs for 13 steps with 1008 atoms

99.9% CPU use with 12 MPI tasks x no OpenMP threads

Minimization stats:
  Stopping criterion = linesearch alpha is zero
  Energy initial, next-to-last, final = 
        -18273.3689225     -18273.4297781     -18273.4297781
  Force two-norm initial, final = 1.22586 0.146387
  Force max component initial, final = 0.0936884 0.0177812
  Final line search alpha, max atom move = 4.76837e-07 8.47874e-09
  Iterations, force evaluations = 13 67

MPI task timing breakdown:
Section |  min time  |  avg time  |  max time  |%varavg| %total
---------------------------------------------------------------
Pair    | 0.069316   | 0.080353   | 0.085741   |   1.7 | 37.07
Kspace  | 0.11799    | 0.12088    | 0.1232     |   0.4 | 55.77
Neigh   | 0          | 0          | 0          |   0.0 |  0.00
Comm    | 0.0080249  | 0.013453   | 0.021842   |   3.9 |  6.21
Output  | 0          | 0          | 0          |   0.0 |  0.00
Modify  | 0          | 0          | 0          |   0.0 |  0.00
Other   |            | 0.002078   |            |       |  0.96

Nlocal:    84 ave 88 max 80 min
Histogram: 1 1 1 2 0 3 1 0 2 1
Nghost:    2604.25 ave 2624 max 2577 min
Histogram: 1 0 2 1 2 0 2 0 0 4
Neighs:    18568.2 ave 19500 max 17594 min
Histogram: 1 1 0 2 2 2 1 0 2 1

Total # of neighbors = 222819
Ave neighs/atom = 221.051
Neighbor list builds = 0
Dangerous builds = 0
  triclinic box = (0 0 -0.0582517) to (23.3007 23.3007 23.3589) with tilt (0 0 0)
WARNING: Resetting reneighboring criteria during minimization (../min.cpp:168)
Ewald initialization ...
  G vector (1/distance) = 0.365021
  estimated absolute RMS force accuracy = 1.96704e-05
  estimated relative force accuracy = 1.36604e-06
  KSpace vectors: actual max1d max3d = 2084 10 4630
                  kxmax kymax kzmax  = 10 10 10
Memory usage per processor = 4.56269 Mbytes
Step Temp E_pair E_mol TotEng Press 
     279           10   -18273.036            0   -18271.734   -16999.295 
     293           10   -18273.176            0   -18271.874   -13709.238 
Loop time of 0.229122 on 12 procs for 14 steps with 1008 atoms

99.9% CPU use with 12 MPI tasks x no OpenMP threads

Minimization stats:
  Stopping criterion = linesearch alpha is zero
  Energy initial, next-to-last, final = 
        -18273.0355088     -18273.1756769     -18273.1756769
  Force two-norm initial, final = 1.82834 0.199598
  Force max component initial, final = 0.139866 0.0259732
  Final line search alpha, max atom move = 2.38419e-07 6.1925e-09
  Iterations, force evaluations = 14 71

MPI task timing breakdown:
Section |  min time  |  avg time  |  max time  |%varavg| %total
---------------------------------------------------------------
Pair    | 0.073603   | 0.084673   | 0.09071    |   1.8 | 36.96
Kspace  | 0.12531    | 0.12839    | 0.13023    |   0.3 | 56.04
Neigh   | 0          | 0          | 0          |   0.0 |  0.00
Comm    | 0.0081935  | 0.014053   | 0.02308    |   4.0 |  6.13
Output  | 0          | 0          | 0          |   0.0 |  0.00
Modify  | 0          | 0          | 0          |   0.0 |  0.00
Other   |            | 0.002001   |            |       |  0.87

Nlocal:    84 ave 88 max 80 min
Histogram: 1 1 1 2 0 3 1 0 2 1
Nghost:    2601.25 ave 2623 max 2573 min
Histogram: 1 1 1 1 2 0 2 0 0 4
Neighs:    18538.3 ave 19460 max 17569 min
Histogram: 1 1 0 2 2 2 1 0 2 1

Total # of neighbors = 222460
Ave neighs/atom = 220.694
Neighbor list builds = 0
Dangerous builds = 0
  triclinic box = (0 0 0) to (23.3007 23.3007 23.3007) with tilt (-0.116503 0 0)
WARNING: Resetting reneighboring criteria during minimization (../min.cpp:168)
Ewald initialization ...
  G vector (1/distance) = 0.365055
  estimated absolute RMS force accuracy = 1.94166e-05
  estimated relative force accuracy = 1.34841e-06
  KSpace vectors: actual max1d max3d = 2079 10 4630
                  kxmax kymax kzmax  = 10 10 10
Memory usage per processor = 4.56269 Mbytes
Step Temp E_pair E_mol TotEng Press 
     293           10   -18273.555            0   -18272.254   -6866.3058 
     300           10   -18273.608            0   -18272.307   -6897.1907 
     308           10   -18273.614            0   -18272.312   -6926.8437 
Loop time of 0.228832 on 12 procs for 15 steps with 1008 atoms

99.9% CPU use with 12 MPI tasks x no OpenMP threads

Minimization stats:
  Stopping criterion = linesearch alpha is zero
  Energy initial, next-to-last, final = 
        -18273.5554656     -18273.6139881     -18273.6139881
  Force two-norm initial, final = 1.23908 0.121675
  Force max component initial, final = 0.126242 0.0117885
  Final line search alpha, max atom move = 4.76837e-07 5.6212e-09
  Iterations, force evaluations = 15 71

MPI task timing breakdown:
Section |  min time  |  avg time  |  max time  |%varavg| %total
---------------------------------------------------------------
Pair    | 0.074342   | 0.085295   | 0.091134   |   1.7 | 37.27
Kspace  | 0.12473    | 0.12767    | 0.12964    |   0.4 | 55.79
Neigh   | 0          | 0          | 0          |   0.0 |  0.00
Comm    | 0.0079191  | 0.013697   | 0.022439   |   3.9 |  5.99
Output  | 4.0054e-05 | 4.1445e-05 | 5.0068e-05 |   0.0 |  0.02
Modify  | 0          | 0          | 0          |   0.0 |  0.00
Other   |            | 0.002132   |            |       |  0.93

Nlocal:    84 ave 88 max 80 min
Histogram: 1 1 1 2 0 3 1 0 2 1
Nghost:    2611.5 ave 2632 max 2590 min
Histogram: 2 1 1 1 1 1 1 0 2 2
Neighs:    18628.6 ave 19581 max 17657 min
Histogram: 1 1 0 3 1 2 1 0 2 1

Total # of neighbors = 223543
Ave neighs/atom = 221.769
Neighbor list builds = 0
Dangerous builds = 0
  triclinic box = (0 0 0) to (23.3007 23.3007 23.3007) with tilt (-0.077661 0 0)
WARNING: Resetting reneighboring criteria during minimization (../min.cpp:168)
Ewald initialization ...
  G vector (1/distance) = 0.365055
  estimated absolute RMS force accuracy = 1.94166e-05
  estimated relative force accuracy = 1.34841e-06
  KSpace vectors: actual max1d max3d = 2081 10 4630
                  kxmax kymax kzmax  = 10 10 10
Memory usage per processor = 4.56269 Mbytes
Step Temp E_pair E_mol TotEng Press 
     308           10   -18273.664            0   -18272.362   -6869.6594 
     323           10    -18273.69            0   -18272.388   -6903.9481 
Loop time of 0.273676 on 12 procs for 15 steps with 1008 atoms

99.7% CPU use with 12 MPI tasks x no OpenMP threads

Minimization stats:
  Stopping criterion = linesearch alpha is zero
  Energy initial, next-to-last, final = 
        -18273.6639652      -18273.689534      -18273.689534
  Force two-norm initial, final = 0.825992 0.0801509
  Force max component initial, final = 0.0841908 0.00771605
  Final line search alpha, max atom move = 1.90735e-06 1.47172e-08
  Iterations, force evaluations = 15 85

MPI task timing breakdown:
Section |  min time  |  avg time  |  max time  |%varavg| %total
---------------------------------------------------------------
Pair    | 0.088001   | 0.10147    | 0.10942    |   2.0 | 37.08
Kspace  | 0.14903    | 0.15324    | 0.15558    |   0.4 | 55.99
Neigh   | 0          | 0          | 0          |   0.0 |  0.00
Comm    | 0.0096416  | 0.016548   | 0.02729    |   4.4 |  6.05
Output  | 0          | 0          | 0          |   0.0 |  0.00
Modify  | 0          | 0          | 0          |   0.0 |  0.00
Other   |            | 0.002421   |            |       |  0.88

Nlocal:    84 ave 88 max 80 min
Histogram: 1 1 1 2 0 3 1 0 2 1
Nghost:    2611.5 ave 2632 max 2590 min
Histogram: 2 1 1 1 1 1 1 0 2 2
Neighs:    18629.7 ave 19579 max 17655 min
Histogram: 1 1 0 3 1 2 1 0 2 1

Total # of neighbors = 223556
Ave neighs/atom = 221.782
Neighbor list builds = 0
Dangerous builds = 0
  triclinic box = (0 0 0) to (23.3007 23.3007 23.3007) with tilt (-0.038842 0 0)
WARNING: Resetting reneighboring criteria during minimization (../min.cpp:168)
Ewald initialization ...
  G vector (1/distance) = 0.365055
  estimated absolute RMS force accuracy = 1.94166e-05
  estimated relative force accuracy = 1.34841e-06
  KSpace vectors: actual max1d max3d = 2082 10 4630
                  kxmax kymax kzmax  = 10 10 10
Memory usage per processor = 4.56269 Mbytes
Step Temp E_pair E_mol TotEng Press 
     323           10   -18273.742            0    -18272.44   -6867.8493 
     328           10   -18273.747            0   -18272.445   -6869.1239 
Loop time of 0.165894 on 12 procs for 5 steps with 1008 atoms

100.0% CPU use with 12 MPI tasks x no OpenMP threads

Minimization stats:
  Stopping criterion = linesearch alpha is zero
  Energy initial, next-to-last, final = 
        -18273.7419252     -18273.7466246     -18273.7466246
  Force two-norm initial, final = 0.413232 0.134397
  Force max component initial, final = 0.0421455 0.0126112
  Final line search alpha, max atom move = 4.76837e-07 6.01351e-09
  Iterations, force evaluations = 5 51

MPI task timing breakdown:
Section |  min time  |  avg time  |  max time  |%varavg| %total
---------------------------------------------------------------
Pair    | 0.053399   | 0.061715   | 0.066197   |   1.5 | 37.20
Kspace  | 0.090123   | 0.092589   | 0.093966   |   0.3 | 55.81
Neigh   | 0          | 0          | 0          |   0.0 |  0.00
Comm    | 0.0059447  | 0.010155   | 0.016868   |   3.4 |  6.12
Output  | 0          | 0          | 0          |   0.0 |  0.00
Modify  | 0          | 0          | 0          |   0.0 |  0.00
Other   |            | 0.001435   |            |       |  0.87

Nlocal:    84 ave 88 max 80 min
Histogram: 1 1 1 2 0 3 1 0 2 1
Nghost:    2611.5 ave 2632 max 2590 min
Histogram: 2 1 1 1 1 1 1 0 2 2
Neighs:    18629.8 ave 19583 max 17648 min
Histogram: 1 1 0 3 1 2 1 0 2 1

Total # of neighbors = 223557
Ave neighs/atom = 221.783
Neighbor list builds = 0
Dangerous builds = 0
  triclinic box = (0 0 0) to (23.3007 23.3007 23.3007) with tilt (0 0 0)
WARNING: Resetting reneighboring criteria during minimization (../min.cpp:168)
Ewald initialization ...
  G vector (1/distance) = 0.365055
  estimated absolute RMS force accuracy = 1.94166e-05
  estimated relative force accuracy = 1.34841e-06
  KSpace vectors: actual max1d max3d = 2084 10 4630
                  kxmax kymax kzmax  = 10 10 10
Memory usage per processor = 4.56269 Mbytes
Step Temp E_pair E_mol TotEng Press 
     328           10   -18273.795            0   -18272.493   -6862.1231 
     330           10   -18273.795            0   -18272.493   -6859.7984 
Loop time of 0.0831902 on 12 procs for 2 steps with 1008 atoms

99.7% CPU use with 12 MPI tasks x no OpenMP threads

Minimization stats:
  Stopping criterion = linesearch alpha is zero
  Energy initial, next-to-last, final = 
        -18273.7946975     -18273.7947007     -18273.7947007
  Force two-norm initial, final = 0.00476106 0.00318501
  Force max component initial, final = 0.000354564 0.000278131
  Final line search alpha, max atom move = 0.000976562 2.71612e-07
  Iterations, force evaluations = 2 25

MPI task timing breakdown:
Section |  min time  |  avg time  |  max time  |%varavg| %total
---------------------------------------------------------------
Pair    | 0.026605   | 0.030957   | 0.03303    |   1.0 | 37.21
Kspace  | 0.04484    | 0.046399   | 0.047276   |   0.3 | 55.77
Neigh   | 0          | 0          | 0          |   0.0 |  0.00
Comm    | 0.00302    | 0.0050826  | 0.008425   |   2.4 |  6.11
Output  | 0          | 0          | 0          |   0.0 |  0.00
Modify  | 0          | 0          | 0          |   0.0 |  0.00
Other   |            | 0.0007517  |            |       |  0.90

Nlocal:    84 ave 88 max 80 min
Histogram: 1 1 1 2 0 3 1 0 2 1
Nghost:    2611.5 ave 2632 max 2590 min
Histogram: 2 1 1 1 1 1 1 0 2 2
Neighs:    18629.7 ave 19581 max 17651 min
Histogram: 1 1 0 2 2 2 1 0 2 1

Total # of neighbors = 223556
Ave neighs/atom = 221.782
Neighbor list builds = 0
Dangerous builds = 0
  triclinic box = (0 0 0) to (23.3007 23.3007 23.3007) with tilt (0.038842 0 0)
WARNING: Resetting reneighboring criteria during minimization (../min.cpp:168)
Ewald initialization ...
  G vector (1/distance) = 0.365055
  estimated absolute RMS force accuracy = 1.94166e-05
  estimated relative force accuracy = 1.34841e-06
  KSpace vectors: actual max1d max3d = 2082 10 4630
                  kxmax kymax kzmax  = 10 10 10
Memory usage per processor = 4.56269 Mbytes
Step Temp E_pair E_mol TotEng Press 
     330           10   -18273.817            0   -18272.515   -6851.0848 
     338           10   -18273.823            0   -18272.521   -6835.5528 
Loop time of 0.305847 on 12 procs for 8 steps with 1008 atoms

100.0% CPU use with 12 MPI tasks x no OpenMP threads

Minimization stats:
  Stopping criterion = linesearch alpha is zero
  Energy initial, next-to-last, final = 
        -18273.8167638     -18273.8229928     -18273.8229928
  Force two-norm initial, final = 0.412888 0.0890796
  Force max component initial, final = 0.0420532 0.0114617
  Final line search alpha, max atom move = 9.53674e-07 1.09307e-08
  Iterations, force evaluations = 8 95

MPI task timing breakdown:
Section |  min time  |  avg time  |  max time  |%varavg| %total
---------------------------------------------------------------
Pair    | 0.099269   | 0.11365    | 0.1213     |   2.0 | 37.16
Kspace  | 0.16643    | 0.17102    | 0.17274    |   0.5 | 55.92
Neigh   | 0          | 0          | 0          |   0.0 |  0.00
Comm    | 0.010835   | 0.018628   | 0.031179   |   4.5 |  6.09
Output  | 0          | 0          | 0          |   0.0 |  0.00
Modify  | 0          | 0          | 0          |   0.0 |  0.00
Other   |            | 0.002544   |            |       |  0.83

Nlocal:    84 ave 88 max 80 min
Histogram: 1 1 1 2 0 3 1 0 2 1
Nghost:    2611.5 ave 2632 max 2590 min
Histogram: 2 1 1 1 1 1 1 0 2 2
Neighs:    18629.2 ave 19579 max 17656 min
Histogram: 1 1 0 3 1 2 1 0 2 1

Total # of neighbors = 223550
Ave neighs/atom = 221.776
Neighbor list builds = 0
Dangerous builds = 0
  triclinic box = (0 0 0) to (23.3007 23.3007 23.3007) with tilt (0.077661 0 0)
WARNING: Resetting reneighboring criteria during minimization (../min.cpp:168)
Ewald initialization ...
  G vector (1/distance) = 0.365055
  estimated absolute RMS force accuracy = 1.94166e-05
  estimated relative force accuracy = 1.34841e-06
  KSpace vectors: actual max1d max3d = 2081 10 4630
                  kxmax kymax kzmax  = 10 10 10
Memory usage per processor = 4.56269 Mbytes
Step Temp E_pair E_mol TotEng Press 
     338           10   -18273.814            0   -18272.512   -6836.1902 
     346           10   -18273.836            0   -18272.534    -6816.647 
Loop time of 0.191255 on 12 procs for 8 steps with 1008 atoms

99.8% CPU use with 12 MPI tasks x no OpenMP threads

Minimization stats:
  Stopping criterion = linesearch alpha is zero
  Energy initial, next-to-last, final = 
        -18273.8137349     -18273.8356467     -18273.8356467
  Force two-norm initial, final = 0.825645 0.177262
  Force max component initial, final = 0.0841512 0.0220532
  Final line search alpha, max atom move = 2.38419e-07 5.25789e-09
  Iterations, force evaluations = 8 59

MPI task timing breakdown:
Section |  min time  |  avg time  |  max time  |%varavg| %total
---------------------------------------------------------------
Pair    | 0.062253   | 0.070953   | 0.076328   |   1.6 | 37.10
Kspace  | 0.10477    | 0.10692    | 0.10793    |   0.3 | 55.90
Neigh   | 0          | 0          | 0          |   0.0 |  0.00
Comm    | 0.0067954  | 0.011668   | 0.019392   |   3.6 |  6.10
Output  | 0          | 0          | 0          |   0.0 |  0.00
Modify  | 0          | 0          | 0          |   0.0 |  0.00
Other   |            | 0.001714   |            |       |  0.90

Nlocal:    84 ave 88 max 80 min
Histogram: 1 1 1 2 0 3 1 0 2 1
Nghost:    2611.5 ave 2632 max 2590 min
Histogram: 2 1 1 1 1 1 1 0 2 2
Neighs:    18631.8 ave 19576 max 17661 min
Histogram: 1 1 0 3 1 2 1 0 2 1

Total # of neighbors = 223582
Ave neighs/atom = 221.808
Neighbor list builds = 0
Dangerous builds = 0
  triclinic box = (0 0 0) to (23.3007 23.3007 23.3007) with tilt (0.116503 0 0)
WARNING: Resetting reneighboring criteria during minimization (../min.cpp:168)
Ewald initialization ...
  G vector (1/distance) = 0.365055
  estimated absolute RMS force accuracy = 1.94166e-05
  estimated relative force accuracy = 1.34841e-06
  KSpace vectors: actual max1d max3d = 2079 10 4630
                  kxmax kymax kzmax  = 10 10 10
Memory usage per processor = 4.56269 Mbytes
Step Temp E_pair E_mol TotEng Press 
     346           10   -18273.782            0    -18272.48   -6816.4939 
     350           10   -18273.825            0   -18272.524   -6802.9006 
     369           10   -18273.842            0    -18272.54   -6752.6012 
Loop time of 0.289536 on 12 procs for 23 steps with 1008 atoms

99.9% CPU use with 12 MPI tasks x no OpenMP threads

Minimization stats:
  Stopping criterion = linesearch alpha is zero
  Energy initial, next-to-last, final = 
        -18273.7819704      -18273.841808      -18273.841808
  Force two-norm initial, final = 1.23873 0.06974
  Force max component initial, final = 0.126297 0.00969105
  Final line search alpha, max atom move = 1.90735e-06 1.84842e-08
  Iterations, force evaluations = 23 83

MPI task timing breakdown:
Section |  min time  |  avg time  |  max time  |%varavg| %total
---------------------------------------------------------------
Pair    | 0.087893   | 0.099901   | 0.10652    |   1.8 | 34.50
Kspace  | 0.15016    | 0.15556    | 0.16009    |   0.8 | 53.73
Neigh   | 0          | 0          | 0          |   0.0 |  0.00
Comm    | 0.014621   | 0.024786   | 0.043545   |   4.8 |  8.56
Output  | 6.2943e-05 | 6.5704e-05 | 7.2002e-05 |   0.0 |  0.02
Modify  | 0          | 0          | 0          |   0.0 |  0.00
Other   |            | 0.009224   |            |       |  3.19

Nlocal:    84 ave 88 max 80 min
Histogram: 1 1 1 2 0 3 1 0 2 1
Nghost:    2611.5 ave 2632 max 2590 min
Histogram: 2 1 1 1 1 1 1 0 2 2
Neighs:    18631.8 ave 19575 max 17666 min
Histogram: 1 1 0 3 1 2 1 0 2 1

Total # of neighbors = 223581
Ave neighs/atom = 221.807
Neighbor list builds = 0
Dangerous builds = 0
  triclinic box = (0 0 0) to (23.3007 23.3007 23.3007) with tilt (0 -0.116503 0)
WARNING: Resetting reneighboring criteria during minimization (../min.cpp:168)
Ewald initialization ...
  G vector (1/distance) = 0.365055
  estimated absolute RMS force accuracy = 1.94166e-05
  estimated relative force accuracy = 1.34841e-06
  KSpace vectors: actual max1d max3d = 2079 10 4630
                  kxmax kymax kzmax  = 10 10 10
Memory usage per processor = 4.56269 Mbytes
Step Temp E_pair E_mol TotEng Press 
     369           10   -18273.658            0   -18272.356   -6770.7652 
     383           10   -18273.714            0   -18272.412   -6726.1194 
Loop time of 0.363019 on 12 procs for 14 steps with 1008 atoms

99.9% CPU use with 12 MPI tasks x no OpenMP threads

Minimization stats:
  Stopping criterion = linesearch alpha is zero
  Energy initial, next-to-last, final = 
        -18273.6580628     -18273.7141046     -18273.7141046
  Force two-norm initial, final = 1.24352 0.134156
  Force max component initial, final = 0.115111 0.0133084
  Final line search alpha, max atom move = 4.76837e-07 6.34592e-09
  Iterations, force evaluations = 14 111

MPI task timing breakdown:
Section |  min time  |  avg time  |  max time  |%varavg| %total
---------------------------------------------------------------
Pair    | 0.11832    | 0.13348    | 0.14175    |   2.0 | 36.77
Kspace  | 0.19586    | 0.19979    | 0.20316    |   0.5 | 55.04
Neigh   | 0          | 0          | 0          |   0.0 |  0.00
Comm    | 0.01415    | 0.024072   | 0.039104   |   4.8 |  6.63
Output  | 0          | 0          | 0          |   0.0 |  0.00
Modify  | 0          | 0          | 0          |   0.0 |  0.00
Other   |            | 0.005676   |            |       |  1.56

Nlocal:    84 ave 88 max 80 min
Histogram: 1 1 1 2 0 3 1 0 2 1
Nghost:    2611.5 ave 2632 max 2590 min
Histogram: 2 1 1 1 1 1 1 0 2 2
Neighs:    18627.5 ave 19568 max 17651 min
Histogram: 1 1 0 2 2 2 1 0 2 1

Total # of neighbors = 223530
Ave neighs/atom = 221.756
Neighbor list builds = 0
Dangerous builds = 0
  triclinic box = (0 0 0) to (23.3007 23.3007 23.3007) with tilt (0 -0.077661 0)
WARNING: Resetting reneighboring criteria during minimization (../min.cpp:168)
Ewald initialization ...
  G vector (1/distance) = 0.365055
  estimated absolute RMS force accuracy = 1.94166e-05
  estimated relative force accuracy = 1.34841e-06
  KSpace vectors: actual max1d max3d = 2081 10 4630
                  kxmax kymax kzmax  = 10 10 10
Memory usage per processor = 4.56269 Mbytes
Step Temp E_pair E_mol TotEng Press 
     383           10   -18273.729            0   -18272.427   -6805.6318 
     394           10   -18273.754            0   -18272.453   -6788.0006 
Loop time of 0.212577 on 12 procs for 11 steps with 1008 atoms

99.8% CPU use with 12 MPI tasks x no OpenMP threads

Minimization stats:
  Stopping criterion = linesearch alpha is zero
  Energy initial, next-to-last, final = 
        -18273.7289637     -18273.7544139     -18273.7544139
  Force two-norm initial, final = 0.828975 0.12222
  Force max component initial, final = 0.0767072 0.0166736
  Final line search alpha, max atom move = 4.76837e-07 7.9506e-09
  Iterations, force evaluations = 11 63

MPI task timing breakdown:
Section |  min time  |  avg time  |  max time  |%varavg| %total
---------------------------------------------------------------
Pair    | 0.066251   | 0.075987   | 0.081146   |   1.6 | 35.75
Kspace  | 0.11354    | 0.11607    | 0.11859    |   0.5 | 54.60
Neigh   | 0          | 0          | 0          |   0.0 |  0.00
Comm    | 0.0086174  | 0.015765   | 0.029209   |   4.3 |  7.42
Output  | 0          | 0          | 0          |   0.0 |  0.00
Modify  | 0          | 0          | 0          |   0.0 |  0.00
Other   |            | 0.004756   |            |       |  2.24

Nlocal:    84 ave 88 max 80 min
Histogram: 1 1 1 2 0 3 1 0 2 1
Nghost:    2611.5 ave 2632 max 2590 min
Histogram: 2 1 1 1 1 1 1 0 2 2
Neighs:    18629.8 ave 19576 max 17647 min
Histogram: 1 1 0 2 2 2 1 0 2 1

Total # of neighbors = 223557
Ave neighs/atom = 221.783
Neighbor list builds = 0
Dangerous builds = 0
  triclinic box = (0 0 0) to (23.3007 23.3007 23.3007) with tilt (0 -0.038842 0)
WARNING: Resetting reneighboring criteria during minimization (../min.cpp:168)
Ewald initialization ...
  G vector (1/distance) = 0.365055
  estimated absolute RMS force accuracy = 1.94166e-05
  estimated relative force accuracy = 1.34841e-06
  KSpace vectors: actual max1d max3d = 2082 10 4630
                  kxmax kymax kzmax  = 10 10 10
Memory usage per processor = 4.56269 Mbytes
Step Temp E_pair E_mol TotEng Press 
     394           10   -18273.776            0   -18272.475   -6836.5502 
     400           10   -18273.783            0   -18272.482   -6822.9641 
     401           10   -18273.783            0   -18272.482   -6822.9641 
Loop time of 0.176947 on 12 procs for 7 steps with 1008 atoms

99.9% CPU use with 12 MPI tasks x no OpenMP threads

Minimization stats:
  Stopping criterion = linesearch alpha is zero
  Energy initial, next-to-last, final = 
        -18273.7764305     -18273.7832002     -18273.7832002
  Force two-norm initial, final = 0.414724 0.093978
  Force max component initial, final = 0.0383444 0.0108609
  Final line search alpha, max atom move = 9.53674e-07 1.03577e-08
  Iterations, force evaluations = 7 53

MPI task timing breakdown:
Section |  min time  |  avg time  |  max time  |%varavg| %total
---------------------------------------------------------------
Pair    | 0.055929   | 0.064232   | 0.068818   |   1.5 | 36.30
Kspace  | 0.095191   | 0.097361   | 0.098945   |   0.3 | 55.02
Neigh   | 0          | 0          | 0          |   0.0 |  0.00
Comm    | 0.0073519  | 0.012427   | 0.021434   |   3.5 |  7.02
Output  | 5.0783e-05 | 5.3386e-05 | 5.9843e-05 |   0.0 |  0.03
Modify  | 0          | 0          | 0          |   0.0 |  0.00
Other   |            | 0.002873   |            |       |  1.62

Nlocal:    84 ave 88 max 80 min
Histogram: 1 1 1 2 0 3 1 0 2 1
Nghost:    2611.5 ave 2632 max 2590 min
Histogram: 2 1 1 1 1 1 1 0 2 2
Neighs:    18629.1 ave 19582 max 17645 min
Histogram: 1 1 0 2 2 2 1 0 2 1

Total # of neighbors = 223549
Ave neighs/atom = 221.775
Neighbor list builds = 0
Dangerous builds = 0
  triclinic box = (0 0 0) to (23.3007 23.3007 23.3007) with tilt (0 0 0)
WARNING: Resetting reneighboring criteria during minimization (../min.cpp:168)
Ewald initialization ...
  G vector (1/distance) = 0.365055
  estimated absolute RMS force accuracy = 1.94166e-05
  estimated relative force accuracy = 1.34841e-06
  KSpace vectors: actual max1d max3d = 2084 10 4630
                  kxmax kymax kzmax  = 10 10 10
Memory usage per processor = 4.56269 Mbytes
Step Temp E_pair E_mol TotEng Press 
     401           10   -18273.795            0   -18272.493   -6862.1231 
     403           10   -18273.795            0   -18272.493   -6859.7984 
Loop time of 0.0944488 on 12 procs for 2 steps with 1008 atoms

98.7% CPU use with 12 MPI tasks x no OpenMP threads

Minimization stats:
  Stopping criterion = linesearch alpha is zero
  Energy initial, next-to-last, final = 
        -18273.7946975     -18273.7947007     -18273.7947007
  Force two-norm initial, final = 0.00476106 0.00318501
  Force max component initial, final = 0.000354564 0.000278131
  Final line search alpha, max atom move = 0.000976562 2.71612e-07
  Iterations, force evaluations = 2 25

MPI task timing breakdown:
Section |  min time  |  avg time  |  max time  |%varavg| %total
---------------------------------------------------------------
Pair    | 0.026595   | 0.031566   | 0.042868   |   2.2 | 33.42
Kspace  | 0.047179   | 0.056381   | 0.057918   |   1.2 | 59.69
Neigh   | 0          | 0          | 0          |   0.0 |  0.00
Comm    | 0.0029755  | 0.005368   | 0.0096009  |   2.5 |  5.68
Output  | 0          | 0          | 0          |   0.0 |  0.00
Modify  | 0          | 0          | 0          |   0.0 |  0.00
Other   |            | 0.001134   |            |       |  1.20

Nlocal:    84 ave 88 max 80 min
Histogram: 1 1 1 2 0 3 1 0 2 1
Nghost:    2611.5 ave 2632 max 2590 min
Histogram: 2 1 1 1 1 1 1 0 2 2
Neighs:    18629.7 ave 19581 max 17651 min
Histogram: 1 1 0 2 2 2 1 0 2 1

Total # of neighbors = 223556
Ave neighs/atom = 221.782
Neighbor list builds = 0
Dangerous builds = 0
  triclinic box = (0 0 0) to (23.3007 23.3007 23.3007) with tilt (0 0.038842 0)
WARNING: Resetting reneighboring criteria during minimization (../min.cpp:168)
Ewald initialization ...
  G vector (1/distance) = 0.365055
  estimated absolute RMS force accuracy = 1.94166e-05
  estimated relative force accuracy = 1.34841e-06
  KSpace vectors: actual max1d max3d = 2082 10 4630
                  kxmax kymax kzmax  = 10 10 10
Memory usage per processor = 4.56269 Mbytes
Step Temp E_pair E_mol TotEng Press 
     403           10   -18273.785            0   -18272.483   -6882.5337 
     408           10    -18273.79            0   -18272.488   -6880.5514 
Loop time of 0.183623 on 12 procs for 5 steps with 1008 atoms

99.2% CPU use with 12 MPI tasks x no OpenMP threads

Minimization stats:
  Stopping criterion = linesearch alpha is zero
  Energy initial, next-to-last, final = 
        -18273.7845405     -18273.7897837     -18273.7897837
  Force two-norm initial, final = 0.41456 0.129424
  Force max component initial, final = 0.0383619 0.0158221
  Final line search alpha, max atom move = 4.76837e-07 7.54457e-09
  Iterations, force evaluations = 5 51

MPI task timing breakdown:
Section |  min time  |  avg time  |  max time  |%varavg| %total
---------------------------------------------------------------
Pair    | 0.05342    | 0.062574   | 0.07628    |   2.1 | 34.08
Kspace  | 0.096873   | 0.10432    | 0.10688    |   0.8 | 56.81
Neigh   | 0          | 0          | 0          |   0.0 |  0.00
Comm    | 0.0074115  | 0.013929   | 0.023632   |   3.6 |  7.59
Output  | 0          | 0          | 0          |   0.0 |  0.00
Modify  | 0          | 0          | 0          |   0.0 |  0.00
Other   |            | 0.002797   |            |       |  1.52

Nlocal:    84 ave 88 max 80 min
Histogram: 1 1 1 2 0 3 1 0 2 1
Nghost:    2611.5 ave 2632 max 2590 min
Histogram: 2 1 1 1 1 1 1 0 2 2
Neighs:    18630.2 ave 19578 max 17656 min
Histogram: 1 1 0 3 1 2 1 0 2 1

Total # of neighbors = 223562
Ave neighs/atom = 221.788
Neighbor list builds = 0
Dangerous builds = 0
  triclinic box = (0 0 0) to (23.3007 23.3007 23.3007) with tilt (0 0.077661 0)
WARNING: Resetting reneighboring criteria during minimization (../min.cpp:168)
Ewald initialization ...
  G vector (1/distance) = 0.365055
  estimated absolute RMS force accuracy = 1.94166e-05
  estimated relative force accuracy = 1.34841e-06
  KSpace vectors: actual max1d max3d = 2081 10 4630
                  kxmax kymax kzmax  = 10 10 10
Memory usage per processor = 4.56269 Mbytes
Step Temp E_pair E_mol TotEng Press 
     408           10   -18273.746            0   -18272.445   -6897.9192 
     418           10    -18273.77            0   -18272.469    -6907.712 
Loop time of 0.201319 on 12 procs for 10 steps with 1008 atoms

99.9% CPU use with 12 MPI tasks x no OpenMP threads

Minimization stats:
  Stopping criterion = linesearch alpha is zero
  Energy initial, next-to-last, final = 
        -18273.7461524     -18273.7702773     -18273.7702773
  Force two-norm initial, final = 0.82897 0.134887
  Force max component initial, final = 0.0766576 0.0185483
  Final line search alpha, max atom move = 4.76837e-07 8.84452e-09
  Iterations, force evaluations = 10 61

MPI task timing breakdown:
Section |  min time  |  avg time  |  max time  |%varavg| %total
---------------------------------------------------------------
Pair    | 0.06393    | 0.073519   | 0.078436   |   1.6 | 36.52
Kspace  | 0.1092     | 0.11095    | 0.11302    |   0.4 | 55.11
Neigh   | 0          | 0          | 0          |   0.0 |  0.00
Comm    | 0.0077581  | 0.013762   | 0.024011   |   3.9 |  6.84
Output  | 0          | 0          | 0          |   0.0 |  0.00
Modify  | 0          | 0          | 0          |   0.0 |  0.00
Other   |            | 0.003083   |            |       |  1.53

Nlocal:    84 ave 88 max 80 min
Histogram: 1 1 1 2 0 3 1 0 2 1
Nghost:    2611.5 ave 2632 max 2590 min
Histogram: 2 1 1 1 1 1 1 0 2 2
Neighs:    18632.6 ave 19578 max 17659 min
Histogram: 1 1 0 3 1 2 1 0 2 1

Total # of neighbors = 223591
Ave neighs/atom = 221.816
Neighbor list builds = 0
Dangerous builds = 0
  triclinic box = (0 0 0) to (23.3007 23.3007 23.3007) with tilt (0 0.116503 0)
WARNING: Resetting reneighboring criteria during minimization (../min.cpp:168)
Ewald initialization ...
  G vector (1/distance) = 0.365055
  estimated absolute RMS force accuracy = 1.94166e-05
  estimated relative force accuracy = 1.34841e-06
  KSpace vectors: actual max1d max3d = 2079 10 4630
                  kxmax kymax kzmax  = 10 10 10
Memory usage per processor = 4.56269 Mbytes
Step Temp E_pair E_mol TotEng Press 
     418           10   -18273.678            0   -18272.377   -6907.8964 
     431           10   -18273.733            0   -18272.431   -6948.7371 
Loop time of 0.356898 on 12 procs for 13 steps with 1008 atoms

100.0% CPU use with 12 MPI tasks x no OpenMP threads

Minimization stats:
  Stopping criterion = linesearch alpha is zero
  Energy initial, next-to-last, final = 
        -18273.6782114     -18273.7329671     -18273.7329671
  Force two-norm initial, final = 1.24377 0.128437
  Force max component initial, final = 0.114961 0.0136482
  Final line search alpha, max atom move = 4.76837e-07 6.50796e-09
  Iterations, force evaluations = 13 110

MPI task timing breakdown:
Section |  min time  |  avg time  |  max time  |%varavg| %total
---------------------------------------------------------------
Pair    | 0.11676    | 0.13193    | 0.14015    |   2.0 | 36.97
Kspace  | 0.19388    | 0.19773    | 0.20078    |   0.5 | 55.40
Neigh   | 0          | 0          | 0          |   0.0 |  0.00
Comm    | 0.012999   | 0.022819   | 0.03852    |   5.1 |  6.39
Output  | 0          | 0          | 0          |   0.0 |  0.00
Modify  | 0          | 0          | 0          |   0.0 |  0.00
Other   |            | 0.004412   |            |       |  1.24

Nlocal:    84 ave 88 max 80 min
Histogram: 1 1 1 2 0 3 1 0 2 1
Nghost:    2611.5 ave 2632 max 2590 min
Histogram: 2 1 1 1 1 1 1 0 2 2
Neighs:    18633.2 ave 19580 max 17658 min
Histogram: 1 1 0 3 1 2 1 0 2 1

Total # of neighbors = 223598
Ave neighs/atom = 221.823
Neighbor list builds = 0
Dangerous builds = 0
  triclinic box = (0 0 0) to (23.3007 23.3007 23.3007) with tilt (0 0 -0.116503)
WARNING: Resetting reneighboring criteria during minimization (../min.cpp:168)
Ewald initialization ...
  G vector (1/distance) = 0.365055
  estimated absolute RMS force accuracy = 1.94166e-05
  estimated relative force accuracy = 1.34841e-06
  KSpace vectors: actual max1d max3d = 2079 10 4630
                  kxmax kymax kzmax  = 10 10 10
Memory usage per processor = 4.56269 Mbytes
Step Temp E_pair E_mol TotEng Press 
     431           10   -18273.887            0   -18272.585   -6838.1597 
     450           10   -18273.949            0   -18272.648   -6622.0706 
     451           10   -18273.949            0   -18272.648   -6622.0706 
Loop time of 0.389255 on 12 procs for 20 steps with 1008 atoms

99.8% CPU use with 12 MPI tasks x no OpenMP threads

Minimization stats:
  Stopping criterion = linesearch alpha is zero
  Energy initial, next-to-last, final = 
        -18273.8865805     -18273.9492324     -18273.9492324
  Force two-norm initial, final = 1.25562 0.103833
  Force max component initial, final = 0.115548 0.0134465
  Final line search alpha, max atom move = 9.53674e-07 1.28236e-08
  Iterations, force evaluations = 20 121

MPI task timing breakdown:
Section |  min time  |  avg time  |  max time  |%varavg| %total
---------------------------------------------------------------
Pair    | 0.12869    | 0.14556    | 0.15433    |   2.0 | 37.39
Kspace  | 0.21154    | 0.2162     | 0.2195     |   0.5 | 55.54
Neigh   | 0          | 0          | 0          |   0.0 |  0.00
Comm    | 0.013744   | 0.02352    | 0.038155   |   5.0 |  6.04
Output  | 4.8161e-05 | 4.9949e-05 | 5.6982e-05 |   0.0 |  0.01
Modify  | 0          | 0          | 0          |   0.0 |  0.00
Other   |            | 0.003925   |            |       |  1.01

Nlocal:    84 ave 88 max 80 min
Histogram: 1 1 1 2 0 3 1 0 2 1
Nghost:    2611.5 ave 2632 max 2590 min
Histogram: 2 1 1 1 1 1 1 0 2 2
Neighs:    18631.4 ave 19581 max 17654 min
Histogram: 1 1 0 3 1 2 1 0 2 1

Total # of neighbors = 223577
Ave neighs/atom = 221.803
Neighbor list builds = 0
Dangerous builds = 0
  triclinic box = (0 0 0) to (23.3007 23.3007 23.3007) with tilt (0 0 -0.077661)
WARNING: Resetting reneighboring criteria during minimization (../min.cpp:168)
Ewald initialization ...
  G vector (1/distance) = 0.365055
  estimated absolute RMS force accuracy = 1.94166e-05
  estimated relative force accuracy = 1.34841e-06
  KSpace vectors: actual max1d max3d = 2081 10 4630
                  kxmax kymax kzmax  = 10 10 10
Memory usage per processor = 4.56269 Mbytes
Step Temp E_pair E_mol TotEng Press 
     451           10   -18273.884            0   -18272.582   -6850.8375 
     459           10   -18273.909            0   -18272.608   -6742.8706 
Loop time of 0.195363 on 12 procs for 8 steps with 1008 atoms

99.7% CPU use with 12 MPI tasks x no OpenMP threads

Minimization stats:
  Stopping criterion = linesearch alpha is zero
  Energy initial, next-to-last, final = 
        -18273.8837615     -18273.9094447     -18273.9094447
  Force two-norm initial, final = 0.837062 0.177686
  Force max component initial, final = 0.0770074 0.0185339
  Final line search alpha, max atom move = 2.38419e-07 4.41882e-09
  Iterations, force evaluations = 8 59

MPI task timing breakdown:
Section |  min time  |  avg time  |  max time  |%varavg| %total
---------------------------------------------------------------
Pair    | 0.063581   | 0.071078   | 0.076068   |   1.4 | 36.38
Kspace  | 0.10577    | 0.10809    | 0.1093     |   0.3 | 55.33
Neigh   | 0          | 0          | 0          |   0.0 |  0.00
Comm    | 0.008009   | 0.013134   | 0.02185    |   3.4 |  6.72
Output  | 0          | 0          | 0          |   0.0 |  0.00
Modify  | 0          | 0          | 0          |   0.0 |  0.00
Other   |            | 0.003062   |            |       |  1.57

Nlocal:    84 ave 88 max 80 min
Histogram: 1 1 1 2 0 3 1 0 2 1
Nghost:    2611.5 ave 2632 max 2590 min
Histogram: 2 1 1 1 1 1 1 0 2 2
Neighs:    18629.7 ave 19579 max 17655 min
Histogram: 1 1 0 3 1 2 1 0 2 1

Total # of neighbors = 223556
Ave neighs/atom = 221.782
Neighbor list builds = 0
Dangerous builds = 0
  triclinic box = (0 0 0) to (23.3007 23.3007 23.3007) with tilt (0 0 -0.038842)
WARNING: Resetting reneighboring criteria during minimization (../min.cpp:168)
Ewald initialization ...
  G vector (1/distance) = 0.365055
  estimated absolute RMS force accuracy = 1.94166e-05
  estimated relative force accuracy = 1.34841e-06
  KSpace vectors: actual max1d max3d = 2082 10 4630
[...]
        -18273.7684965     -18273.7738876     -18273.7738876
  Force two-norm initial, final = 0.415275 0.108522
  Force max component initial, final = 0.0387115 0.0185847
  Final line search alpha, max atom move = 9.53674e-07 1.77237e-08
  Iterations, force evaluations = 6 51

MPI task timing breakdown:
Section |  min time  |  avg time  |  max time  |%varavg| %total
---------------------------------------------------------------
Pair    | 0.054283   | 0.061609   | 0.066255   |   1.4 | 36.88
Kspace  | 0.090385   | 0.093163   | 0.094323   |   0.4 | 55.76
Neigh   | 0          | 0          | 0          |   0.0 |  0.00
Comm    | 0.0058503  | 0.010809   | 0.017256   |   3.3 |  6.47
Output  | 0          | 0          | 0          |   0.0 |  0.00
Modify  | 0          | 0          | 0          |   0.0 |  0.00
Other   |            | 0.001491   |            |       |  0.89

Nlocal:    84 ave 89 max 80 min
Histogram: 1 0 2 1 4 2 1 0 0 1
Nghost:    2612.33 ave 2637 max 2582 min
Histogram: 1 0 3 0 1 2 1 0 2 2
Neighs:    18630.5 ave 19810 max 17661 min
Histogram: 1 0 2 2 2 3 1 0 0 1

Total # of neighbors = 223566
Ave neighs/atom = 221.792
Neighbor list builds = 0
Dangerous builds = 0
  triclinic box = (0 0 0) to (23.3007 23.3007 23.3007) with tilt (0 0.077661 0)
WARNING: Resetting reneighboring criteria during minimization (../min.cpp:168)
Ewald initialization ...
  G vector (1/distance) = 0.365055
  estimated absolute RMS force accuracy = 1.94166e-05
  estimated relative force accuracy = 1.34841e-06
  KSpace vectors: actual max1d max3d = 2081 10 4630
                  kxmax kymax kzmax  = 10 10 10
Memory usage per processor = 4.56269 Mbytes
Step Temp E_pair E_mol TotEng Press 
     913           10   -18273.733            0   -18272.431   -6379.3071 
     927           10    -18273.76            0   -18272.458   -6392.8217 
Loop time of 0.430278 on 12 procs for 14 steps with 1008 atoms

100.0% CPU use with 12 MPI tasks x no OpenMP threads

Minimization stats:
  Stopping criterion = linesearch alpha is zero
  Energy initial, next-to-last, final = 
         -18273.733074     -18273.7598209     -18273.7598209
  Force two-norm initial, final = 0.830394 0.0834196
  Force max component initial, final = 0.0773227 0.00792499
  Final line search alpha, max atom move = 9.53674e-07 7.55786e-09
  Iterations, force evaluations = 14 133

MPI task timing breakdown:
Section |  min time  |  avg time  |  max time  |%varavg| %total
---------------------------------------------------------------
Pair    | 0.14123    | 0.15873    | 0.16887    |   2.1 | 36.89
Kspace  | 0.23219    | 0.23954    | 0.24257    |   0.6 | 55.67
Neigh   | 0          | 0          | 0          |   0.0 |  0.00
Comm    | 0.015516   | 0.02784    | 0.043978   |   5.1 |  6.47
Output  | 0          | 0          | 0          |   0.0 |  0.00
Modify  | 0          | 0          | 0          |   0.0 |  0.00
Other   |            | 0.004177   |            |       |  0.97

Nlocal:    84 ave 89 max 80 min
Histogram: 1 0 2 1 4 2 1 0 0 1
Nghost:    2612.33 ave 2637 max 2582 min
Histogram: 1 0 3 0 1 2 1 0 2 2
Neighs:    18631.5 ave 19810 max 17666 min
Histogram: 1 0 2 2 2 3 1 0 0 1

Total # of neighbors = 223578
Ave neighs/atom = 221.804
Neighbor list builds = 0
Dangerous builds = 0
  triclinic box = (0 0 0) to (23.3007 23.3007 23.3007) with tilt (0 0.116503 0)
WARNING: Resetting reneighboring criteria during minimization (../min.cpp:168)
Ewald initialization ...
  G vector (1/distance) = 0.365055
  estimated absolute RMS force accuracy = 1.94166e-05
  estimated relative force accuracy = 1.34841e-06
  KSpace vectors: actual max1d max3d = 2079 10 4630
                  kxmax kymax kzmax  = 10 10 10
Memory usage per processor = 4.56269 Mbytes
Step Temp E_pair E_mol TotEng Press 
     927           10   -18273.673            0   -18272.371   -6391.9533 
     947           10   -18273.733            0   -18272.431   -6428.8853 
Loop time of 0.359398 on 12 procs for 20 steps with 1008 atoms

100.1% CPU use with 12 MPI tasks x no OpenMP threads

Minimization stats:
  Stopping criterion = linesearch alpha is zero
  Energy initial, next-to-last, final = 
        -18273.6728302       -18273.73305       -18273.73305
  Force two-norm initial, final = 1.24586 0.0756807
  Force max component initial, final = 0.115928 0.00704485
  Final line search alpha, max atom move = 1.90735e-06 1.3437e-08
  Iterations, force evaluations = 20 111

MPI task timing breakdown:
Section |  min time  |  avg time  |  max time  |%varavg| %total
---------------------------------------------------------------
Pair    | 0.11806    | 0.13282    | 0.142      |   2.0 | 36.96
Kspace  | 0.1948     | 0.20027    | 0.20297    |   0.5 | 55.72
Neigh   | 0          | 0          | 0          |   0.0 |  0.00
Comm    | 0.012592   | 0.022884   | 0.036266   |   4.5 |  6.37
Output  | 0          | 0          | 0          |   0.0 |  0.00
Modify  | 0          | 0          | 0          |   0.0 |  0.00
Other   |            | 0.003422   |            |       |  0.95

Nlocal:    84 ave 89 max 80 min
Histogram: 1 0 2 1 4 2 1 0 0 1
Nghost:    2612.33 ave 2637 max 2582 min
Histogram: 1 0 3 0 1 2 1 0 2 2
Neighs:    18635 ave 19816 max 17672 min
Histogram: 1 0 2 2 2 3 1 0 0 1

Total # of neighbors = 223620
Ave neighs/atom = 221.845
Neighbor list builds = 0
Dangerous builds = 0
  triclinic box = (0 0 0) to (23.3007 23.3007 23.3007) with tilt (0 0 -0.116503)
WARNING: Resetting reneighboring criteria during minimization (../min.cpp:168)
Ewald initialization ...
  G vector (1/distance) = 0.365055
  estimated absolute RMS force accuracy = 1.94166e-05
  estimated relative force accuracy = 1.34841e-06
  KSpace vectors: actual max1d max3d = 2079 10 4630
                  kxmax kymax kzmax  = 10 10 10
Memory usage per processor = 4.56269 Mbytes
Step Temp E_pair E_mol TotEng Press 
     947           10    -18273.86            0   -18272.558   -6332.0124 
     950           10   -18273.903            0   -18272.601   -6241.8354 
     963           10   -18273.922            0    -18272.62   -6076.7832 
Loop time of 0.239436 on 12 procs for 16 steps with 1008 atoms

99.7% CPU use with 12 MPI tasks x no OpenMP threads

Minimization stats:
  Stopping criterion = linesearch alpha is zero
  Energy initial, next-to-last, final = 
         -18273.859559     -18273.9219016     -18273.9219016
  Force two-norm initial, final = 1.25225 0.139855
  Force max component initial, final = 0.115973 0.0195294
  Final line search alpha, max atom move = 4.76837e-07 9.31233e-09
  Iterations, force evaluations = 16 73

MPI task timing breakdown:
Section |  min time  |  avg time  |  max time  |%varavg| %total
---------------------------------------------------------------
Pair    | 0.078346   | 0.088231   | 0.095362   |   1.6 | 36.85
Kspace  | 0.13008    | 0.13364    | 0.13539    |   0.4 | 55.81
Neigh   | 0          | 0          | 0          |   0.0 |  0.00
Comm    | 0.0082748  | 0.015204   | 0.024102   |   3.8 |  6.35
Output  | 4.8876e-05 | 5.1141e-05 | 5.6982e-05 |   0.0 |  0.02
Modify  | 0          | 0          | 0          |   0.0 |  0.00
Other   |            | 0.002313   |            |       |  0.97

Nlocal:    84 ave 89 max 80 min
Histogram: 1 0 2 1 4 2 1 0 0 1
Nghost:    2612.33 ave 2637 max 2582 min
Histogram: 1 0 3 0 1 2 1 0 2 2
Neighs:    18631.5 ave 19815 max 17658 min
Histogram: 1 0 2 2 1 4 1 0 0 1

Total # of neighbors = 223578
Ave neighs/atom = 221.804
Neighbor list builds = 0
Dangerous builds = 0
  triclinic box = (0 0 0) to (23.3007 23.3007 23.3007) with tilt (0 0 -0.077661)
WARNING: Resetting reneighboring criteria during minimization (../min.cpp:168)
Ewald initialization ...
  G vector (1/distance) = 0.365055
  estimated absolute RMS force accuracy = 1.94166e-05
  estimated relative force accuracy = 1.34841e-06
  KSpace vectors: actual max1d max3d = 2081 10 4630
                  kxmax kymax kzmax  = 10 10 10
Memory usage per processor = 4.56269 Mbytes
Step Temp E_pair E_mol TotEng Press 
     963           10   -18273.861            0    -18272.56   -6340.0024 
     978           10   -18273.886            0   -18272.584   -6169.2742 
Loop time of 0.226355 on 12 procs for 15 steps with 1008 atoms

100.0% CPU use with 12 MPI tasks x no OpenMP threads

Minimization stats:
  Stopping criterion = linesearch alpha is zero
  Energy initial, next-to-last, final = 
        -18273.8612007     -18273.8856667     -18273.8856667
  Force two-norm initial, final = 0.834783 0.099357
  Force max component initial, final = 0.0772603 0.0175933
  Final line search alpha, max atom move = 9.53674e-07 1.67783e-08
  Iterations, force evaluations = 15 69

MPI task timing breakdown:
Section |  min time  |  avg time  |  max time  |%varavg| %total
---------------------------------------------------------------
Pair    | 0.072931   | 0.082931   | 0.089907   |   1.7 | 36.64
Kspace  | 0.12341    | 0.12643    | 0.12816    |   0.4 | 55.85
Neigh   | 0          | 0          | 0          |   0.0 |  0.00
Comm    | 0.008208   | 0.014797   | 0.023618   |   3.8 |  6.54
Output  | 0          | 0          | 0          |   0.0 |  0.00
Modify  | 0          | 0          | 0          |   0.0 |  0.00
Other   |            | 0.0022     |            |       |  0.97

Nlocal:    84 ave 89 max 80 min
Histogram: 1 0 2 1 4 2 1 0 0 1
Nghost:    2612.33 ave 2637 max 2582 min
Histogram: 1 0 3 0 1 2 1 0 2 2
Neighs:    18631.2 ave 19817 max 17652 min
Histogram: 1 0 2 2 1 4 1 0 0 1

Total # of neighbors = 223575
Ave neighs/atom = 221.801
Neighbor list builds = 0
Dangerous builds = 0
  triclinic box = (0 0 0) to (23.3007 23.3007 23.3007) with tilt (0 0 -0.038842)
WARNING: Resetting reneighboring criteria during minimization (../min.cpp:168)
Ewald initialization ...
  G vector (1/distance) = 0.365055
  estimated absolute RMS force accuracy = 1.94166e-05
  estimated relative force accuracy = 1.34841e-06
  KSpace vectors: actual max1d max3d = 2082 10 4630
                  kxmax kymax kzmax  = 10 10 10
Memory usage per processor = 4.56269 Mbytes
Step Temp E_pair E_mol TotEng Press 
     978           10   -18273.832            0    -18272.53   -6342.4286 
     987           10   -18273.839            0   -18272.537      -6273.3 
Loop time of 0.186648 on 12 procs for 9 steps with 1008 atoms

99.8% CPU use with 12 MPI tasks x no OpenMP threads

Minimization stats:
  Stopping criterion = linesearch alpha is zero
  Energy initial, next-to-last, final = 
        -18273.8317149     -18273.8385492     -18273.8385492
  Force two-norm initial, final = 0.417605 0.081484
  Force max component initial, final = 0.0385891 0.00759359
  Final line search alpha, max atom move = 9.53674e-07 7.24181e-09
  Iterations, force evaluations = 9 57

MPI task timing breakdown:
Section |  min time  |  avg time  |  max time  |%varavg| %total
---------------------------------------------------------------
Pair    | 0.060803   | 0.06867    | 0.073652   |   1.4 | 36.79
Kspace  | 0.10175    | 0.10391    | 0.10542    |   0.3 | 55.67
Neigh   | 0          | 0          | 0          |   0.0 |  0.00
Comm    | 0.0067573  | 0.012208   | 0.019373   |   3.3 |  6.54
Output  | 0          | 0          | 0          |   0.0 |  0.00
Modify  | 0          | 0          | 0          |   0.0 |  0.00
Other   |            | 0.001864   |            |       |  1.00

Nlocal:    84 ave 89 max 80 min
Histogram: 1 0 2 1 4 2 1 0 0 1
Nghost:    2612.33 ave 2637 max 2582 min
Histogram: 1 0 3 0 1 2 1 0 2 2
Neighs:    18631.8 ave 19811 max 17654 min
Histogram: 1 0 2 2 1 4 1 0 0 1

Total # of neighbors = 223582
Ave neighs/atom = 221.808
Neighbor list builds = 0
Dangerous builds = 0
  triclinic box = (0 0 0) to (23.3007 23.3007 23.3007) with tilt (0 0 0)
WARNING: Resetting reneighboring criteria during minimization (../min.cpp:168)
Ewald initialization ...
  G vector (1/distance) = 0.365055
  estimated absolute RMS force accuracy = 1.94166e-05
  estimated relative force accuracy = 1.34841e-06
  KSpace vectors: actual max1d max3d = 2084 10 4630
                  kxmax kymax kzmax  = 10 10 10
Memory usage per processor = 4.56269 Mbytes
Step Temp E_pair E_mol TotEng Press 
     987           10   -18273.772            0    -18272.47   -6339.4907 
     989           10   -18273.772            0    -18272.47   -6337.1778 
Loop time of 0.0772814 on 12 procs for 2 steps with 1008 atoms

99.6% CPU use with 12 MPI tasks x no OpenMP threads

Minimization stats:
  Stopping criterion = linesearch alpha is zero
  Energy initial, next-to-last, final = 
        -18273.7716688      -18273.771682      -18273.771682
  Force two-norm initial, final = 0.00473512 0.00317128
  Force max component initial, final = 0.000363245 0.000294706
  Final line search alpha, max atom move = 0.000976562 2.87799e-07
  Iterations, force evaluations = 2 23

MPI task timing breakdown:
Section |  min time  |  avg time  |  max time  |%varavg| %total
---------------------------------------------------------------
Pair    | 0.02486    | 0.028461   | 0.030414   |   1.0 | 36.83
Kspace  | 0.041954   | 0.042973   | 0.04357    |   0.2 | 55.61
Neigh   | 0          | 0          | 0          |   0.0 |  0.00
Comm    | 0.0028186  | 0.0050589  | 0.0080492  |   2.2 |  6.55
Output  | 0          | 0          | 0          |   0.0 |  0.00
Modify  | 0          | 0          | 0          |   0.0 |  0.00
Other   |            | 0.0007894  |            |       |  1.02

Nlocal:    84 ave 89 max 80 min
Histogram: 1 0 2 1 4 2 1 0 0 1
Nghost:    2612.33 ave 2637 max 2582 min
Histogram: 1 0 3 0 1 2 1 0 2 2
Neighs:    18630.9 ave 19812 max 17661 min
Histogram: 1 0 2 2 2 3 1 0 0 1

Total # of neighbors = 223571
Ave neighs/atom = 221.797
Neighbor list builds = 0
Dangerous builds = 0
  triclinic box = (0 0 0) to (23.3007 23.3007 23.3007) with tilt (0 0 0.038842)
WARNING: Resetting reneighboring criteria during minimization (../min.cpp:168)
Ewald initialization ...
  G vector (1/distance) = 0.365055
  estimated absolute RMS force accuracy = 1.94166e-05
  estimated relative force accuracy = 1.34841e-06
  KSpace vectors: actual max1d max3d = 2082 10 4630
                  kxmax kymax kzmax  = 10 10 10
Memory usage per processor = 4.56269 Mbytes
Step Temp E_pair E_mol TotEng Press 
     989           10   -18273.686            0   -18272.384   -6332.1714 
     994           10    -18273.69            0   -18272.388    -6369.578 
Loop time of 0.167946 on 12 procs for 5 steps with 1008 atoms

99.9% CPU use with 12 MPI tasks x no OpenMP threads

Minimization stats:
  Stopping criterion = linesearch alpha is zero
  Energy initial, next-to-last, final = 
        -18273.6855917     -18273.6901243     -18273.6901243
  Force two-norm initial, final = 0.41747 0.131373
  Force max component initial, final = 0.0387682 0.0152696
  Final line search alpha, max atom move = 4.76837e-07 7.2811e-09
  Iterations, force evaluations = 5 51

MPI task timing breakdown:
Section |  min time  |  avg time  |  max time  |%varavg| %total
---------------------------------------------------------------
Pair    | 0.055231   | 0.061624   | 0.066067   |   1.2 | 36.69
Kspace  | 0.090174   | 0.093394   | 0.094371   |   0.4 | 55.61
Neigh   | 0          | 0          | 0          |   0.0 |  0.00
Comm    | 0.0063169  | 0.011112   | 0.017391   |   3.1 |  6.62
Output  | 0          | 0          | 0          |   0.0 |  0.00
Modify  | 0          | 0          | 0          |   0.0 |  0.00
Other   |            | 0.001816   |            |       |  1.08

Nlocal:    84 ave 89 max 80 min
Histogram: 1 0 2 1 4 2 1 0 0 1
Nghost:    2612.33 ave 2637 max 2582 min
Histogram: 1 0 3 0 1 2 1 0 2 2
Neighs:    18629.4 ave 19815 max 17663 min
Histogram: 1 0 2 2 2 3 1 0 0 1

Total # of neighbors = 223553
Ave neighs/atom = 221.779
Neighbor list builds = 0
Dangerous builds = 0
  triclinic box = (0 0 0) to (23.3007 23.3007 23.3007) with tilt (0 0 0.077661)
WARNING: Resetting reneighboring criteria during minimization (../min.cpp:168)
Ewald initialization ...
  G vector (1/distance) = 0.365055
  estimated absolute RMS force accuracy = 1.94166e-05
  estimated relative force accuracy = 1.34841e-06
  KSpace vectors: actual max1d max3d = 2081 10 4630
                  kxmax kymax kzmax  = 10 10 10
Memory usage per processor = 4.56269 Mbytes
Step Temp E_pair E_mol TotEng Press 
     994           10   -18273.574            0   -18272.273   -6320.8478 
    1000           10   -18273.597            0   -18272.296   -6428.9462 
    1005           10     -18273.6            0   -18272.299   -6460.3473 
Loop time of 0.335037 on 12 procs for 11 steps with 1008 atoms

99.9% CPU use with 12 MPI tasks x no OpenMP threads

Minimization stats:
  Stopping criterion = linesearch alpha is zero
  Energy initial, next-to-last, final = 
        -18273.5743054     -18273.6004586     -18273.6004586
  Force two-norm initial, final = 0.834745 0.12466
  Force max component initial, final = 0.0774146 0.012002
  Final line search alpha, max atom move = 4.76837e-07 5.72302e-09
  Iterations, force evaluations = 11 103

MPI task timing breakdown:
Section |  min time  |  avg time  |  max time  |%varavg| %total
---------------------------------------------------------------
Pair    | 0.10951    | 0.12406    | 0.1318     |   1.8 | 37.03
Kspace  | 0.17986    | 0.18576    | 0.18789    |   0.5 | 55.45
Neigh   | 0          | 0          | 0          |   0.0 |  0.00
Comm    | 0.012367   | 0.021992   | 0.03447    |   4.5 |  6.56
Output  | 4.22e-05   | 4.4405e-05 | 5.1022e-05 |   0.0 |  0.01
Modify  | 0          | 0          | 0          |   0.0 |  0.00
Other   |            | 0.003175   |            |       |  0.95

Nlocal:    84 ave 89 max 80 min
Histogram: 1 0 2 1 4 2 1 0 0 1
Nghost:    2612.33 ave 2637 max 2582 min
Histogram: 1 0 3 0 1 2 1 0 2 2
Neighs:    18629.7 ave 19818 max 17657 min
Histogram: 1 0 2 2 2 3 1 0 0 1

Total # of neighbors = 223556
Ave neighs/atom = 221.782
Neighbor list builds = 0
Dangerous builds = 0
  triclinic box = (0 0 0) to (23.3007 23.3007 23.3007) with tilt (0 0 0.116503)
WARNING: Resetting reneighboring criteria during minimization (../min.cpp:168)
Ewald initialization ...
  G vector (1/distance) = 0.365055
  estimated absolute RMS force accuracy = 1.94166e-05
  estimated relative force accuracy = 1.34841e-06
  KSpace vectors: actual max1d max3d = 2079 10 4630
                  kxmax kymax kzmax  = 10 10 10
Memory usage per processor = 4.56269 Mbytes
Step Temp E_pair E_mol TotEng Press 
    1005           10   -18273.434            0   -18272.132      -6304.5 
    1023           10   -18273.496            0   -18272.195   -6588.3748 
Loop time of 0.25158 on 12 procs for 18 steps with 1008 atoms

100.1% CPU use with 12 MPI tasks x no OpenMP threads

Minimization stats:
  Stopping criterion = linesearch alpha is zero
  Energy initial, next-to-last, final = 
        -18273.4341043     -18273.4964567     -18273.4964567
  Force two-norm initial, final = 1.25237 0.128911
  Force max component initial, final = 0.116073 0.0123596
  Final line search alpha, max atom move = 4.76837e-07 5.89352e-09
  Iterations, force evaluations = 18 77

MPI task timing breakdown:
Section |  min time  |  avg time  |  max time  |%varavg| %total
---------------------------------------------------------------
Pair    | 0.082387   | 0.092391   | 0.10051    |   1.7 | 36.72
Kspace  | 0.13842    | 0.14104    | 0.14252    |   0.3 | 56.06
Neigh   | 0          | 0          | 0          |   0.0 |  0.00
Comm    | 0.0086067  | 0.015759   | 0.025151   |   3.8 |  6.26
Output  | 0          | 0          | 0          |   0.0 |  0.00
Modify  | 0          | 0          | 0          |   0.0 |  0.00
Other   |            | 0.002388   |            |       |  0.95

Nlocal:    84 ave 89 max 80 min
Histogram: 1 0 2 1 4 2 1 0 0 1
Nghost:    2612.33 ave 2637 max 2582 min
Histogram: 1 0 3 0 1 2 1 0 2 2
Neighs:    18626.8 ave 19813 max 17657 min
Histogram: 1 0 2 2 2 3 1 0 0 1

Total # of neighbors = 223522
Ave neighs/atom = 221.748
Neighbor list builds = 0
Dangerous builds = 0
Total wall time: 0:00:19
