ITEM: TIMESTEP
0
ITEM: NUMBER OF ATOMS
1008
ITEM: BOX BOUNDS xy xz yz pp pp pp
0.0 23.3006801605 0.0
0.0 23.3006801605 0.0
0.0 23.3006801605 0.0
ITEM: ATOMS id type x y z
1 1 4.400740623474121 -7.017147064208984 -7.948022365570068 
2 1 0.131158784031868 6.112275123596191 -1.323862791061401 
3 1 -11.032721519470215 5.572708606719971 -3.345680236816406 
4 1 -1.352624773979187 3.119493246078491 -1.495898008346558 
5 1 5.836889743804932 -11.632561683654785 -11.471461296081543 
6 1 0.193729609251022 -3.295773029327393 10.577512741088867 
7 1 8.045101165771484 0.150769457221031 -3.262020111083984 
8 1 -4.110343456268311 -1.205409646034241 -4.707423686981201 
9 1 -9.727542877197266 10.347352981567383 -1.645621776580811 
10 1 5.047454833984375 -0.343068450689316 -9.488472938537598 
11 1 9.675729751586914 2.039863824844360 7.040394306182861 
12 1 9.120251655578613 -2.796859979629517 4.542189598083496 
13 1 0.822213292121887 3.655477523803711 9.678812026977539 
14 1 -6.779171466827393 4.507679939270020 -1.301299452781677 
15 1 -5.242529392242432 -3.815216064453125 5.511320114135742 
16 1 3.034380674362183 -9.034996032714844 4.406537055969238 
17 1 -10.307328224182129 3.567849636077881 5.793252468109131 
18 1 -9.589045524597168 2.275581598281860 -2.328635931015015 
19 1 -0.691832482814789 -1.436424255371094 5.076406002044678 
20 1 -10.216003417968750 -2.600746631622314 8.275115966796875 
21 1 10.909977912902832 -5.664608478546143 5.253657817840576 
22 1 0.029336025938392 -7.092980861663818 -3.271867990493774 
23 1 -5.730429172515869 -7.111735343933105 7.344302177429199 
24 1 7.816552639007568 4.578448772430420 9.052175521850586 
25 1 7.069500446319580 -2.691148996353149 9.361788749694824 
26 1 -5.550131797790527 6.805351734161377 6.982549190521240 
27 1 8.127542495727539 -10.808207511901855 2.374863862991333 
28 1 0.505825817584991 10.313606262207031 6.100108623504639 
29 1 -3.143953800201416 -10.911405563354492 -4.662335395812988 
30 1 -6.140079975128174 3.023990392684937 -7.505243778228760 
31 1 -1.408211827278137 5.215814590454102 -7.431286334991455 
32 1 -11.465106010437012 6.826449871063232 6.353678703308105 
33 1 4.618258476257324 6.121741294860840 1.195861577987671 
34 1 2.203948259353638 3.329813957214355 0.017132529988885 
35 1 0.562340974807739 -1.606095314025879 -5.652705192565918 
36 1 -10.594129562377930 -11.313296318054199 10.149768829345703 
37 1 -11.648392677307129 -0.616168379783630 5.496872901916504 
38 1 -4.757543563842773 1.459480285644531 -1.416451573371887 
39 1 4.541733264923096 -3.989733457565308 -6.035549163818359 
40 1 -7.179238319396973 -4.513556957244873 2.459635257720947 
41 1 -3.442328691482544 -7.139166355133057 -5.100867271423340 
42 1 3.153022527694702 -10.176156044006348 -9.531196594238281 
43 1 -8.590964317321777 5.341250419616699 -9.111666679382324 
44 1 -2.342445611953735 -8.912753105163574 -1.733615875244141 
45 1 -8.385821342468262 10.694991111755371 7.663268089294434 
46 1 0.688890695571899 9.170094490051270 9.638326644897461 
47 1 7.370598316192627 -9.120157241821289 -4.460632324218750 
48 1 4.913405418395996 -9.010447502136230 8.852410316467285 
49 1 3.419479370117188 11.490238189697266 -5.947622299194336 
50 1 -10.701006889343262 -5.629711151123047 2.201720476150513 
51 1 -5.861226558685303 11.042765617370605 5.248928546905518 
52 1 -11.004563331604004 -0.540766417980194 -0.915715515613556 
53 1 -1.955169916152954 1.002585649490356 0.957767009735107 
54 1 -1.422571778297424 -0.654626905918121 -2.280563354492188 
55 1 3.625450849533081 -4.394985675811768 10.055025100708008 
56 1 2.976097822189331 8.286549568176270 -4.220261096954346 
57 1 6.829980373382568 -5.796288967132568 -10.453094482421875 
58 1 3.784492969512939 5.461861610412598 -1.936235308647156 
59 1 3.822544336318970 9.211440086364746 -8.990941047668457 
60 1 0.628630816936493 5.438059329986572 2.834929704666138 
61 1 2.369338035583496 0.847680449485779 -7.739771366119385 
62 1 8.490439414978027 7.570507049560547 -5.990609169006348 
63 1 -1.765871882438660 -5.475957393646240 -0.257196843624115 
64 1 -5.011220932006836 -6.616612911224365 0.898603260517120 
65 1 8.768834114074707 6.110359191894531 -2.725489854812622 
66 1 0.227834016084671 -3.324182748794556 -9.003396987915039 
67 1 5.495426654815674 -3.786479949951172 1.921285986900330 
68 1 9.456481933593750 7.317786216735840 10.943248748779297 
69 1 -11.539254188537598 -9.634836196899414 -2.371651649475098 
70 1 -6.857100963592529 -3.015870094299316 -6.488773345947266 
71 1 -1.042551755905151 9.764035224914551 -5.997047901153564 
72 1 3.800862312316895 1.138646006584167 2.600325822830200 
73 1 -7.496311664581299 0.456400483846664 -5.000170230865479 
74 1 -3.578882932662964 4.659665107727051 -10.290814399719238 
75 1 -10.550107002258301 -6.030139923095703 10.854298591613770 
76 1 3.637297153472900 10.596674919128418 3.691583156585693 
77 1 3.203253030776978 10.295282363891602 -1.611779570579529 
78 1 10.777908325195312 11.251492500305176 0.198310598731041 
79 1 3.989458322525024 -9.667420387268066 -3.032021522521973 
80 1 10.053372383117676 0.570857167243958 -9.627631187438965 
81 1 -9.811591148376465 0.696650564670563 8.412897109985352 
82 1 1.801303386688232 -6.361863136291504 0.127926766872406 
83 1 -2.618724584579468 9.511361122131348 0.264008849859238 
84 1 0.860895931720734 -0.256031662225723 -10.993983268737793 
85 1 -7.665360450744629 -3.162855148315430 10.825544357299805 
86 1 -8.452494621276855 9.545927047729492 1.770170688629150 
87 1 7.727849006652832 8.200374603271484 8.053351402282715 
88 1 -2.850438356399536 1.781559944152832 -6.523277759552002 
89 1 -2.849083900451660 5.412181854248047 4.722945213317871 
90 1 9.616636276245117 -4.252028465270996 -8.501170158386230 
91 1 3.458112716674805 11.640217781066895 6.992367744445801 
92 1 3.586039543151855 1.701462745666504 -3.229901552200317 
93 1 -7.147355079650879 8.092208862304688 10.148905754089355 
94 1 -8.605669975280762 7.829273700714111 5.075004100799561 
95 1 -9.082341194152832 10.148070335388184 -10.437851905822754 
96 1 5.877570629119873 4.701456069946289 -9.747056007385254 
97 1 -2.148532390594482 -9.689229965209961 9.480337142944336 
98 1 10.501844406127930 -7.386155128479004 -0.018703022971749 
99 1 0.285692870616913 -7.333742618560791 9.919436454772949 
100 1 -7.111709594726562 8.135788917541504 -2.094101667404175 
101 1 4.020317077636719 -0.987895429134369 5.681034088134766 
102 1 6.569859981536865 1.730274558067322 11.016303062438965 
103 1 0.652074754238129 -9.852484703063965 7.176506042480469 
104 1 -10.272912979125977 0.753649950027466 -11.375151634216309 
105 1 7.188782691955566 11.124940872192383 -5.597619056701660 
106 1 -9.656221389770508 -1.811468124389648 -4.234888076782227 
107 1 -5.021947383880615 -5.014209270477295 10.293313026428223 
108 1 -1.499174833297729 6.300348758697510 -4.318276882171631 
109 1 -10.610637664794922 8.086358070373535 -8.167848587036133 
110 1 -1.339078426361084 6.537949562072754 10.758002281188965 
111 1 -1.861673712730408 7.909979820251465 -9.232800483703613 
112 1 7.586717128753662 -7.530949115753174 3.972182273864746 
113 1 11.111584663391113 0.609389424324036 -4.692497730255127 
114 1 11.396250724792480 9.056091308593750 -4.498117446899414 
115 1 6.751683235168457 3.577524423599243 -3.199347019195557 
116 1 -7.904431343078613 -7.619073867797852 4.192205429077148 
117 1 -2.226543664932251 -3.870386838912964 7.785379409790039 
118 1 -2.901767969131470 9.140859603881836 6.468176841735840 
119 1 3.583362579345703 -7.137111663818359 -11.563801765441895 
120 1 11.193652153015137 9.599643707275391 8.677152633666992 
121 1 9.769442558288574 4.096061706542969 -5.696900367736816 
122 1 -6.623084545135498 11.415565490722656 -4.065271854400635 
123 1 -11.617116928100586 3.982970952987671 8.966603279113770 
124 1 7.509548187255859 -11.461856842041016 8.688537597656250 
125 1 -7.127739906311035 0.537012815475464 11.088243484497070 
126 1 -9.723517417907715 1.449105978012085 3.014364004135132 
127 1 -10.765212059020996 2.679548501968384 -7.624784946441650 
128 1 -2.857593536376953 0.083697162568569 7.577903270721436 
129 1 2.720927000045776 -6.273142337799072 7.107656002044678 
130 1 -3.857225179672241 -4.561246395111084 -7.775554656982422 
131 1 -3.661136627197266 6.388687610626221 -1.499096512794495 
132 1 4.902204513549805 -7.732053279876709 1.349337697029114 
133 1 -5.622593879699707 7.639526367187500 -9.551842689514160 
134 1 -7.969142436981201 0.277194350957870 -8.527680397033691 
135 1 7.299029350280762 9.484131813049316 -8.941943168640137 
136 1 -8.253274917602539 -8.832367897033691 8.893013954162598 
137 1 -1.543800473213196 -4.004372596740723 -3.886707067489624 
138 1 -7.146678924560547 -0.781659781932831 1.498098611831665 
139 1 -5.292833805084229 -10.784923553466797 8.209475517272949 
140 1 -4.265310287475586 3.697835206985474 -3.712152242660522 
141 1 8.487594604492188 -9.035321235656738 -10.678653717041016 
142 1 1.570538043975830 8.463618278503418 1.243905544281006 
143 1 0.274305939674377 1.946000576019287 3.935970306396484 
144 1 8.743927001953125 11.004587173461914 -2.415855646133423 
145 1 7.296730995178223 -9.198763847351074 -0.870981156826019 
146 1 -11.539410591125488 -2.630864381790161 -11.122341156005859 
147 1 -1.787825942039490 1.373166203498840 10.834952354431152 
148 1 5.578077316284180 0.944434463977814 -0.462984174489975 
149 1 -4.826671600341797 -4.890810012817383 -2.407426357269287 
150 1 6.490698814392090 -2.332052707672119 -1.352180838584900 
151 1 9.523913383483887 10.926769256591797 -11.489722251892090 
152 1 0.933640241622925 -3.007386684417725 -1.160085320472717 
153 1 -1.197004914283752 -2.639853954315186 1.945001602172852 
154 1 5.145354747772217 6.945353984832764 -6.882517337799072 
155 1 9.382850646972656 -1.659683108329773 0.851290047168732 
156 1 -6.388585090637207 2.948554039001465 1.694675445556641 
157 1 5.966901779174805 1.833542108535767 7.334535121917725 
158 1 9.728775978088379 -0.254230380058289 10.089266777038574 
159 1 -7.568372249603271 6.109178543090820 2.040077686309814 
160 1 -3.682891130447388 4.337392807006836 9.278374671936035 
161 1 -6.574164867401123 0.709594368934631 4.843894958496094 
162 1 -3.662373065948486 9.395851135253906 9.901276588439941 
163 1 11.578315734863281 -7.256979465484619 -9.222006797790527 
164 1 -1.899188160896301 -5.854364395141602 -10.862420082092285 
165 1 7.662774085998535 4.087271213531494 0.250740408897400 
166 1 -7.488263130187988 10.474535942077637 -7.207907199859619 
167 1 -5.683743476867676 -8.479200363159180 -3.008443593978882 
168 1 7.989247322082520 -2.412693023681641 -10.264512062072754 
169 1 1.583120226860046 -8.993815422058105 -6.382619380950928 
170 1 -0.272922545671463 9.600711822509766 -2.523824214935303 
171 1 6.953993320465088 -5.907269477844238 9.038208007812500 
172 1 -8.516840934753418 7.317931652069092 -5.566061496734619 
173 1 3.471427917480469 -2.284312248229980 -3.360599040985107 
174 1 3.071601629257202 -5.725906372070312 3.704833030700684 
175 1 -11.232835769653320 -9.417065620422363 6.933800220489502 
176 1 -4.930450439453125 6.251404285430908 -6.150246143341064 
177 1 9.031573295593262 -4.953502178192139 1.845192551612854 
178 1 4.944582939147949 4.085986614227295 4.466374397277832 
179 1 6.149719715118408 -10.241121292114258 -8.035181999206543 
180 1 -11.099062919616699 4.369668960571289 -11.034943580627441 
181 1 -10.990366935729980 -1.904368162155151 -7.827190876007080 
182 1 2.347773313522339 -9.819735527038574 0.160201758146286 
183 1 4.016154289245605 8.102566719055176 8.110945701599121 
184 1 -3.998477935791016 -9.041065216064453 -10.671373367309570 
185 1 -7.292011260986328 -7.174230098724365 -10.982094764709473 
186 1 0.288661062717438 1.578944802284241 -4.567383289337158 
187 1 -5.225903511047363 -1.911268234252930 -10.091043472290039 
188 1 9.366430282592773 8.268798828125000 0.261607676744461 
189 1 9.470734596252441 6.121086597442627 -8.790407180786133 
190 1 2.411495923995972 -10.625623703002930 10.370635032653809 
191 1 -6.672460556030273 4.362388134002686 11.196143150329590 
192 1 10.441246986389160 10.685296058654785 -7.305367946624756 
193 1 -0.438257724046707 11.556810379028320 1.872747182846069 
194 1 2.352602481842041 6.930419445037842 -11.315982818603516 
195 1 -9.011066436767578 -8.292471885681152 -4.414443969726562 
196 1 5.849319458007812 -4.472200393676758 5.618701457977295 
197 1 -8.459166526794434 -4.793498516082764 -3.429197549819946 
198 1 7.467958450317383 2.049640178680420 -8.024028778076172 
199 1 8.783195495605469 -1.212250947952271 -6.689639091491699 
200 1 10.815629005432129 -3.970243930816650 -1.291243314743042 
201 1 -9.495869636535645 -10.990864753723145 4.346676349639893 
202 1 3.863432168960571 -3.810246229171753 -9.685748100280762 
203 1 8.364896774291992 3.016446590423584 3.742627859115601 
204 1 -8.411079406738281 -6.998555660247803 -0.336232334375381 
205 1 -6.733987331390381 2.578234910964966 8.094181060791016 
206 1 10.390178680419922 5.727461338043213 2.174848794937134 
207 1 -6.531413555145264 -6.513748168945312 -7.449498176574707 
208 1 -2.526565074920654 -10.642745971679688 -8.145424842834473 
209 1 0.023739475756884 -8.151697158813477 2.557883977890015 
210 1 5.294138431549072 -0.260828822851181 -5.742323875427246 
211 1 5.866002559661865 7.893142700195312 11.352738380432129 
212 1 -4.048253059387207 -1.031885981559753 3.270580053329468 
213 1 2.681843042373657 5.978815555572510 6.009419918060303 
214 1 6.218745708465576 -10.372387886047363 5.472825050354004 
215 1 -1.592258810997009 11.016725540161133 -11.278108596801758 
216 1 6.643567562103271 9.140309333801270 1.958994746208191 
217 1 -2.327235937118530 -1.084285020828247 -7.937778949737549 
218 1 4.668798446655273 3.281937360763550 -6.163315773010254 
219 1 7.194501876831055 -6.091909885406494 -6.468855857849121 
220 1 -6.392346858978271 -1.132730960845947 7.908997058868408 
221 1 -0.999021112918854 8.285652160644531 3.488208770751953 
222 1 -1.948298811912537 -7.459240913391113 6.664196014404297 
223 2 -5.123546123504639 -1.400612711906433 1.373638987541199 
224 2 -9.152502059936523 8.483272552490234 -1.478484988212585 
225 2 10.385517120361328 9.623007774353027 4.674860477447510 
226 2 6.414512157440186 2.679897308349609 -0.373243182897568 
227 2 -4.270502567291260 -8.310647010803223 1.068916082382202 
228 2 9.187931060791016 -2.738660097122192 -5.408100128173828 
229 2 9.215153694152832 -8.856666564941406 -5.273317813873291 
230 2 -8.152415275573730 7.732115268707275 1.017843008041382 
231 2 -6.173628330230713 9.625703811645508 -3.318243503570557 
232 2 10.955636978149414 11.030631065368652 10.156903266906738 
233 2 -5.846563816070557 2.843832015991211 -0.506816029548645 
234 2 6.631152153015137 -10.726610183715820 3.659525394439697 
235 2 7.308102607727051 -4.357221126556396 -2.169544696807861 
236 2 10.671895027160645 -5.899328708648682 -1.302839636802673 
237 2 9.122234344482422 10.088909149169922 -8.570337295532227 
238 2 -5.259945392608643 -10.630254745483398 -10.840250968933105 
239 2 11.011331558227539 -3.574773073196411 -7.335345745086670 
240 2 -3.669623851776123 8.368823051452637 -9.640819549560547 
241 2 7.492702484130859 7.679951667785645 10.122809410095215 
242 2 6.009323120117188 3.459443330764771 -8.050601959228516 
243 2 -9.669186592102051 -11.251498222351074 -9.713172912597656 
244 2 -2.766670227050781 8.653888702392578 4.430326938629150 
245 2 -1.128502964973450 9.704136848449707 -9.799030303955078 
246 2 4.102361679077148 -10.569496154785156 -7.477561950683594 
247 2 6.291120052337646 -6.012073040008545 -8.472098350524902 
248 2 9.318349838256836 10.040806770324707 -0.686980843544006 
249 2 -6.260498046875000 -8.969783782958984 8.172400474548340 
250 2 -6.912947654724121 -11.058190345764160 -8.022467613220215 
251 2 -3.985776185989380 10.276579856872559 -1.109925508499146 
252 2 -11.434881210327148 -9.998601913452148 11.398714065551758 
253 2 2.161006212234497 4.247554779052734 8.317867279052734 
254 2 -9.315753936767578 1.646646499633789 -8.335331916809082 
255 2 -11.462306022644043 7.487957954406738 -3.544523000717163 
256 2 -6.927539348602295 10.658445358276367 1.799921989440918 
257 2 10.913112640380859 0.729707002639771 -0.600941896438599 
258 2 10.349284172058105 2.615426540374756 -4.401115894317627 
259 2 -11.589768409729004 8.471632957458496 7.270773887634277 
260 2 11.165483474731445 10.912824630737305 -10.418390274047852 
261 2 4.657924175262451 -3.447458267211914 -7.877789497375488 
262 2 4.661840438842773 5.180053234100342 2.850988864898682 
263 2 -0.359800249338150 -8.779257774353027 -2.253496646881104 
264 2 -3.560377836227417 -5.301758766174316 11.605570793151855 
265 2 -3.691408395767212 0.904727995395660 0.014172446914017 
266 2 -3.566533088684082 -3.761526823043823 6.505969524383545 
267 2 -2.117595434188843 -10.530006408691406 -2.935583829879761 
268 2 -4.456984043121338 8.219406127929688 -5.241480827331543 
269 2 9.378020286560059 7.314975261688232 -1.373177289962769 
270 2 -9.834794044494629 10.759041786193848 11.293268203735352 
271 2 -7.957214832305908 -9.028130531311035 -10.241082191467285 
272 2 3.489840030670166 -5.057572841644287 -11.368784904479980 
273 2 -8.697285652160645 -5.946853637695312 -1.886011123657227 
274 2 10.185382843017578 -3.203740596771240 -10.134181976318359 
275 2 -8.917310714721680 -0.100034341216087 2.054405927658081 
276 2 5.357616901397705 -1.001047611236572 -0.515295505523682 
277 2 7.869966983795166 4.589934349060059 -1.679699540138245 
278 2 -3.370799303054810 -0.199722886085510 -6.262493133544922 
279 2 7.238395690917969 8.491500854492188 0.035097777843475 
280 2 -4.742628574371338 -10.969780921936035 1.215205430984497 
281 2 2.476356029510498 -9.546341896057129 -1.714894175529480 
282 2 -10.288505554199219 -3.710474252700806 -3.816935062408447 
283 2 -9.673641204833984 -8.328001022338867 7.537695407867432 
284 2 -8.356107711791992 1.194234848022461 4.327693939208984 
285 2 8.950231552124023 2.197972536087036 -9.813757896423340 
286 2 7.643692016601562 -2.585473060607910 11.213535308837891 
287 2 -2.181637763977051 -1.617756724357605 3.624225616455078 
288 2 9.329701423645020 2.802104949951172 -0.168150722980499 
289 2 -6.767935752868652 6.296194076538086 10.914467811584473 
290 2 -8.587738037109375 9.267783164978027 6.446861743927002 
291 2 11.142939567565918 7.013341426849365 -8.412470817565918 
292 2 2.022015094757080 5.973814010620117 -1.369376540184021 
293 2 -7.967621803283691 -3.437773704528809 -4.878275394439697 
294 2 -3.205482721328735 0.673761785030365 2.552314281463623 
295 2 -10.345275878906250 -6.063727855682373 -8.462335586547852 
296 2 -4.292412281036377 6.331426620483398 5.570149898529053 
297 2 3.607827425003052 -5.699146270751953 -8.925913810729980 
298 2 -1.091602802276611 11.396645545959473 -7.686458110809326 
299 2 -8.775259971618652 -10.195013999938965 -4.228997230529785 
300 2 -1.956833600997925 7.440359592437744 6.599279403686523 
301 2 1.555689811706543 -10.972150802612305 -6.516114234924316 
302 2 -8.274107933044434 1.867219328880310 -3.769647836685181 
303 2 -7.409327507019043 -6.144433498382568 -9.266494750976562 
304 2 -6.597954273223877 -4.037472248077393 9.542184829711914 
305 2 -2.001496553421021 0.946175694465637 -8.199860572814941 
306 2 -1.980029702186584 -9.687900543212891 -0.083008073270321 
307 2 -2.491487503051758 3.975017070770264 3.418435335159302 
308 2 2.857267856597900 -0.345570176839828 1.630904078483582 
309 2 1.935965538024902 -3.947458028793335 -2.704506635665894 
310 2 -9.194285392761230 -3.966734409332275 7.091614246368408 
311 2 7.562615871429443 -11.520536422729492 6.377744197845459 
312 2 -5.058891773223877 -2.364666938781738 -6.107677459716797 
313 2 5.916411399841309 7.972747325897217 7.133902549743652 
314 2 1.523116350173950 -6.262657642364502 -4.323279857635498 
315 2 3.954062223434448 4.057055950164795 -9.885374069213867 
316 2 0.165670096874237 8.978158950805664 4.801660060882568 
317 2 1.018760442733765 -10.961331367492676 0.978849530220032 
318 2 -7.994432926177979 -3.560511350631714 -7.887838840484619 
319 2 5.990714073181152 -10.768344879150391 9.713816642761230 
320 2 -11.116357803344727 -11.050077438354492 0.860766232013702 
321 2 -3.242136955261230 -4.752106189727783 -3.472405672073364 
322 2 1.701688647270203 7.414092063903809 -5.418098449707031 
323 2 -8.487420082092285 1.946445107460022 7.820758819580078 
324 2 10.234255790710449 -8.656019210815430 -9.407586097717285 
325 2 -5.268946170806885 -10.377321243286133 6.176808357238770 
326 2 11.362817764282227 -0.937249124050140 -9.370414733886719 
327 2 -10.666841506958008 -3.966723918914795 -0.892960488796234 
328 2 -2.070843935012817 3.055947303771973 0.367104440927505 
329 2 8.405110359191895 11.484879493713379 10.328962326049805 
330 2 7.250887870788574 10.006319046020508 8.454961776733398 
331 2 9.949068069458008 6.709910869598389 5.789055347442627 
332 2 -7.016244888305664 -3.832059860229492 4.361392974853516 
333 2 -2.365223884582520 -7.733173370361328 -6.543971538543701 
334 2 -6.520827770233154 1.585582256317139 -9.001750946044922 
335 2 3.111115932464600 6.311592102050781 -3.604956865310669 
336 2 6.003923416137695 -3.655556440353394 -0.013272202573717 
337 2 7.804299354553223 -10.989524841308594 -1.357441544532776 
338 2 -0.909656882286072 -6.055052757263184 10.753623008728027 
339 2 -9.584810256958008 0.811835229396820 -1.078807950019836 
340 2 -9.123987197875977 -6.249134063720703 -4.479144573211670 
341 2 7.243461132049561 9.847848892211914 -2.696238756179810 
342 2 7.851862907409668 3.173261404037476 10.424015045166016 
343 2 -11.197986602783203 5.196904182434082 5.346108436584473 
344 2 8.315077781677246 7.751248359680176 -8.015279769897461 
345 2 -4.965672492980957 4.674029827117920 -7.367814064025879 
346 2 -11.160204887390137 3.041602134704590 -1.166422367095947 
347 2 5.070914268493652 -2.674973011016846 5.298522472381592 
348 2 10.425129890441895 4.853276252746582 -2.462619543075562 
349 2 4.932413578033447 7.825257778167725 9.731243133544922 
350 2 9.548161506652832 -10.931593894958496 1.115500926971436 
351 2 -5.148331165313721 -7.595665454864502 -6.249618053436279 
352 2 4.861884117126465 2.748520374298096 10.967963218688965 
353 2 -5.824357986450195 -11.037328720092773 3.808706521987915 
354 2 1.243366837501526 -5.003251552581787 6.305801868438721 
355 2 3.506219863891602 -10.602324485778809 8.701373100280762 
356 2 2.493114233016968 -5.870513916015625 1.836108922958374 
357 2 3.502368688583374 -2.618919372558594 10.623269081115723 
358 2 2.004178285598755 -1.992300868034363 -4.515721321105957 
359 2 -4.229313373565674 -8.968460083007812 -1.851916193962097 
360 2 9.898555755615234 2.203583002090454 2.997653961181641 
361 2 -11.490281105041504 -5.950778961181641 7.047826290130615 
362 2 3.259210824966431 -11.531210899353027 -0.210659876465797 
363 2 8.707734107971191 -2.411683559417725 -8.251846313476562 
364 2 -8.448897361755371 -3.699273824691772 -10.898556709289551 
365 2 -9.413288116455078 6.670902252197266 6.646316528320312 
366 2 -4.503223419189453 11.344475746154785 -3.861575126647949 
367 2 -7.830521583557129 4.446598529815674 -10.674175262451172 
368 2 -0.791431427001953 -5.451666831970215 -2.216467618942261 
369 2 -0.277723014354706 -7.099346637725830 -9.858359336853027 
370 2 -2.291323900222778 8.810876846313477 -7.461308956146240 
371 2 -8.289139747619629 -6.049265861511230 -6.831793785095215 
372 2 -4.156293869018555 -7.472571849822998 3.667665719985962 
373 2 -2.458817243576050 -1.920329689979553 8.163858413696289 
374 2 11.140651702880859 5.202097415924072 -4.870499134063721 
375 2 -1.546991944313049 -2.748217344284058 10.555365562438965 
376 2 -0.171823799610138 -6.319855690002441 0.490787625312805 
377 2 4.557339668273926 -2.090004444122314 -5.407949447631836 
378 2 10.185744285583496 -3.787685155868530 -3.115029573440552 
379 2 6.930830955505371 -9.940289497375488 -11.304561614990234 
380 2 -11.481184959411621 -8.210427284240723 5.495934009552002 
381 2 -6.752240180969238 4.616495132446289 3.099241256713867 
382 2 10.559389114379883 9.774603843688965 1.543624043464661 
383 2 -5.579589843750000 -0.180619835853577 -1.645732283592224 
384 2 -0.558037996292114 -8.791435241699219 11.094272613525391 
385 2 -10.344686508178711 8.501004219055176 -10.094599723815918 
386 2 -7.362150669097900 4.448604583740234 -3.088933944702148 
387 2 -5.087307929992676 3.173191785812378 8.647559165954590 
388 2 7.046864032745361 6.991338729858398 -2.667490482330322 
389 2 -7.940754890441895 7.801301002502441 -3.801120042800903 
390 2 4.101261615753174 10.076939582824707 7.777770042419434 
391 2 -11.026998519897461 -0.719973444938660 8.994161605834961 
392 2 1.907058596611023 5.399082183837891 -7.040366172790527 
393 2 -7.469246387481689 -1.244147896766663 -6.230468273162842 
394 2 4.800093650817871 -0.044261839240789 3.907982587814331 
395 2 -0.947673976421356 5.393930435180664 1.580852866172791 
396 2 10.941480636596680 -1.916026949882507 4.156736850738525 
397 2 -6.599567413330078 3.286101579666138 -5.646413326263428 
398 2 -0.974548280239105 -1.090466499328613 -6.597487926483154 
399 2 -3.610830068588257 -9.866895675659180 8.308821678161621 
400 2 -0.501579880714417 7.003586292266846 -8.061325073242188 
401 2 9.857593536376953 -4.534427165985107 3.726114749908447 
402 2 -10.959165573120117 -4.488379001617432 4.918305397033691 
403 2 -6.511886119842529 -5.008232116699219 -3.279037237167358 
404 2 3.720465421676636 -3.174216985702515 1.759274125099182 
405 2 -8.146488189697266 -4.901930332183838 0.566005647182465 
406 2 3.154247045516968 0.750343263149261 6.159175395965576 
407 2 5.675295352935791 -0.098183080554008 6.655465602874756 
408 2 -10.133958816528320 -6.552059173583984 0.573576748371124 
409 2 5.235929489135742 -5.819134712219238 1.163181543350220 
410 2 5.635106086730957 -4.185905456542969 -10.466337203979492 
411 2 1.143935799598694 -2.122238159179688 0.738776087760925 
412 2 -0.927137911319733 -9.926101684570312 2.384437322616577 
413 2 -4.995884418487549 7.472156524658203 -7.644662857055664 
414 2 -7.550347805023193 -1.464041590690613 -0.322890818119049 
415 2 3.963882446289062 -5.320352077484131 5.806221008300781 
416 2 9.532104492187500 -1.810333251953125 6.245568752288818 
417 2 8.312446594238281 -4.259869575500488 9.054484367370605 
418 2 -6.286404132843018 -10.449438095092773 -5.404403686523438 
419 2 -0.113157175481319 0.030466806143522 10.460665702819824 
420 2 3.462021589279175 7.572340488433838 -7.867055892944336 
421 2 -10.485875129699707 0.624454498291016 6.603959560394287 
422 2 9.190983772277832 7.194626808166504 -4.261479377746582 
423 2 -1.914716839790344 4.656579494476318 6.246954917907715 
424 2 4.128213882446289 -9.634126663208008 1.203259229660034 
425 2 0.039057590067387 -10.970989227294922 5.627279281616211 
426 2 -6.442026138305664 -0.512467920780182 3.314723968505859 
427 2 8.049500465393066 -1.968729019165039 -0.373966932296753 
428 2 -2.744963169097900 -1.578724861145020 -1.189315676689148 
429 2 3.393917560577393 3.646926641464233 -4.521131992340088 
430 2 1.502034902572632 -9.430423736572266 -8.583518981933594 
431 2 -5.340326309204102 8.608654022216797 9.758952140808105 
432 2 -11.079315185546875 -9.968193054199219 3.503203392028809 
433 2 -10.591639518737793 7.988172531127930 4.791721820831299 
434 2 6.160503864288330 -5.354578495025635 7.375655174255371 
435 2 -1.612802147865295 -6.277698040008545 5.062536716461182 
436 2 9.897967338562012 0.438217401504517 -2.911377429962158 
437 2 -11.049700736999512 -3.716164112091064 1.972647905349731 
438 2 -5.967411518096924 9.607415199279785 -8.627197265625000 
439 2 -3.340794563293457 -10.214144706726074 3.689913988113403 
440 2 -1.665159344673157 2.027704000473022 4.851798057556152 
441 2 -6.919188022613525 -10.856451988220215 -0.111124739050865 
442 2 1.258339643478394 8.216805458068848 11.304689407348633 
443 2 -1.234998106956482 -9.197445869445801 -8.517601013183594 
444 2 -6.829091072082520 4.731441974639893 0.689818382263184 
445 2 -7.281709194183350 1.180490493774414 -6.756306171417236 
446 2 7.420880317687988 1.437315344810486 3.961817741394043 
447 2 -6.611632347106934 0.766969382762909 9.091566085815430 
448 2 0.281763613224030 3.849562168121338 3.766731500625610 
449 2 9.248589515686035 5.777448654174805 -6.808126926422119 
450 2 11.599019050598145 -6.522188663482666 3.614341497421265 
451 2 0.722020089626312 2.388374090194702 5.937700271606445 
452 2 2.670761823654175 -1.469584226608276 4.363592624664307 
453 2 2.605190038681030 -1.845303177833557 -1.580291867256165 
454 2 -4.449699401855469 3.235719203948975 1.928100585937500 
455 2 10.311763763427734 0.687802016735077 5.824917316436768 
456 2 -6.394482135772705 10.974452972412109 7.204973697662354 
457 2 3.927279233932495 8.023602485656738 -10.733689308166504 
458 2 -2.811290264129639 0.078400284051895 9.680266380310059 
459 2 6.002606868743896 4.955259323120117 9.409259796142578 
460 2 -1.979584813117981 -5.745942115783691 7.577737808227539 
461 2 6.838854312896729 8.363223075866699 -10.394636154174805 
462 2 11.396161079406738 5.753346920013428 8.058310508728027 
463 2 -1.173545360565186 6.395691394805908 4.148980140686035 
464 2 0.461860328912735 -1.387062788009644 6.766387939453125 
465 2 5.375659942626953 2.145390033721924 -2.741548299789429 
466 2 9.799490928649902 -4.594286918640137 6.345980167388916 
467 2 -4.783819198608398 4.421754360198975 10.903629302978516 
468 2 9.573031425476074 -10.635936737060547 -10.720658302307129 
469 2 -8.755089759826660 -9.233720779418945 4.877889633178711 
470 2 -8.900327682495117 -8.913028717041016 0.108110539615154 
471 2 2.602524518966675 -7.216326236724854 5.256448268890381 
472 2 -0.602695584297180 0.865718960762024 -10.579118728637695 
473 2 6.759688854217529 -7.467089653015137 -5.184568405151367 
474 2 -2.692396879196167 -7.635591506958008 -10.464743614196777 
475 2 -1.000635504722595 9.887407302856445 -0.761090040206909 