LAMMPS (7 Dec 2015)
# Tantala heating to find melting temp. and glass transition temp.
# Intervals of 400 K (starting at 0 K) to be merged with the date from the even directory (also has intervals of 400 K starting at 200 K)
# Including rdf compute and initial velocity seed
# I've written a loop that makes melting/cooling simulation codes less tedious (In test directory input file)

# Initialization

units		metal
atom_style	charge
dimension	3
boundary	p p p

# Optional

neighbor	1.0 nsq
neigh_modify	every 1 delay 1 check yes

# Defining atomic system (896 atoms)

read_data	min1.dat
  triclinic box = (0 0 0) to (23.3007 23.3007 23.3007) with tilt (0 0 0)
  2 by 2 by 3 MPI processor grid
  reading atoms ...
  1008 atoms

# Potential

kspace_style	ewald 1.0e-6
#For low-temperature simulations, comment out the following line
#pair_style	hybrid/overlay lj246/cut 10 buck/coul/long 10 morse 10
#For low-temperature simulations, un-comment the following line
pair_style      hybrid/overlay buck/coul/long 10 morse 10

pair_coeff      1 2 buck/coul/long 100067.01 0.1319 6.05
pair_coeff      2 2 buck/coul/long 1388.773 0.3623188 175.0000
pair_coeff      1 1 buck/coul/long 0.00000000 1.0000000 0.000000
pair_coeff	2 3 buck/coul/long 17243.00 0.2265 128.35
pair_coeff      1 3 buck/coul/long 0.00000000 1.0000000 0.000000
pair_coeff      3 3 buck/coul/long 0.00000000 1.0000000 0.000000
pair_coeff 	1 2 morse 	   0.3789 1.6254 2.5445
#Remove these lines if running low-temperature simulation
#pair_coeff      1 2 lj246/cut	   0.01 0.51
#pair_coeff	2 2 lj246/cut 	   0.00035653 1.9000

# MD parameters

#1 fs timestep
timestep 0.001
thermo		50

fix		1 all nvt temp 10 10 0.1
velocity	all create 10 26684

load_tls min1.dump 1 0
  triclinic box = (0 0 0) to (23.3007 23.3007 23.3007) with tilt (0 0 0)
  1008 atoms before read
  1008 atoms in snapshot
  0 atoms purged
  1008 atoms replaced
  0 atoms trimmed
  0 atoms added
  1008 atoms after read
load_tls min2.dump 2 0
  triclinic box = (0 0 0) to (23.3007 23.3007 23.3007) with tilt (0 0 0)
  1008 atoms before read
  1008 atoms in snapshot
  0 atoms purged
  1008 atoms replaced
  0 atoms trimmed
  0 atoms added
  1008 atoms after read
couple_elastic 0.005 linear
  triclinic box = (0.0582517 0 0) to (23.2424 23.3007 23.3007) with tilt (0 0 0)
WARNING: Resetting reneighboring criteria during minimization (../min.cpp:168)
Ewald initialization ...
  G vector (1/distance) = 0.365089
  estimated absolute RMS force accuracy = 1.92191e-05
  estimated relative force accuracy = 1.33469e-06
  KSpace vectors: actual max1d max3d = 2088 10 4630
                  kxmax kymax kzmax  = 10 10 10
Neighbor list info ...
  2 neighbor list requests
  update every 1 steps, delay 0 steps, check yes
  max neighbors/atom: 2000, page size: 100000
  master list distance cutoff = 11
  ghost atom cutoff = 11
Memory usage per processor = 4.56139 Mbytes
Step Temp E_pair E_mol TotEng Press 
       0           10   -18273.336            0   -18272.034    3443.5691 
      20           10   -18273.486            0   -18272.184   -113.86528 
Loop time of 0.314286 on 12 procs for 20 steps with 1008 atoms

98.1% CPU use with 12 MPI tasks x no OpenMP threads

Minimization stats:
  Stopping criterion = linesearch alpha is zero
  Energy initial, next-to-last, final = 
        -18273.3360507     -18273.4857429     -18273.4857429
  Force two-norm initial, final = 1.83866 0.139357
  Force max component initial, final = 0.170338 0.0123571
  Final line search alpha, max atom move = 4.76837e-07 5.89231e-09
  Iterations, force evaluations = 20 81

MPI task timing breakdown:
Section |  min time  |  avg time  |  max time  |%varavg| %total
---------------------------------------------------------------
Pair    | 0.083509   | 0.095496   | 0.11525    |   2.7 | 30.38
Kspace  | 0.16862    | 0.17248    | 0.18006    |   0.7 | 54.88
Neigh   | 0          | 0          | 0          |   0.0 |  0.00
Comm    | 0.021979   | 0.043848   | 0.05419    |   4.4 | 13.95
Output  | 0          | 0          | 0          |   0.0 |  0.00
Modify  | 0          | 0          | 0          |   0.0 |  0.00
Other   |            | 0.002467   |            |       |  0.78

Nlocal:    84 ave 88 max 79 min
Histogram: 1 0 1 2 0 3 1 2 1 1
Nghost:    2611.17 ave 2635 max 2592 min
Histogram: 1 2 2 0 2 1 1 1 1 1
Neighs:    18719.3 ave 19645 max 17533 min
Histogram: 1 1 0 2 0 3 1 1 1 2

Total # of neighbors = 224632
Ave neighs/atom = 222.849
Neighbor list builds = 0
Dangerous builds = 0
  triclinic box = (0.0388306 0 0) to (23.2618 23.3007 23.3007) with tilt (0 0 0)
WARNING: Resetting reneighboring criteria during minimization (../min.cpp:168)
Ewald initialization ...
  G vector (1/distance) = 0.365078
  estimated absolute RMS force accuracy = 1.92793e-05
  estimated relative force accuracy = 1.33888e-06
  KSpace vectors: actual max1d max3d = 2084 10 4630
                  kxmax kymax kzmax  = 10 10 10
Memory usage per processor = 4.56139 Mbytes
Step Temp E_pair E_mol TotEng Press 
      20           10   -18273.414            0   -18272.112   -149.37259 
      40           10   -18273.482            0    -18272.18   -2503.6948 
Loop time of 0.264169 on 12 procs for 20 steps with 1008 atoms

99.4% CPU use with 12 MPI tasks x no OpenMP threads

Minimization stats:
  Stopping criterion = linesearch alpha is zero
  Energy initial, next-to-last, final = 
        -18273.4135947     -18273.4818697     -18273.4818697
  Force two-norm initial, final = 1.21816 0.0928209
  Force max component initial, final = 0.112525 0.0083061
  Final line search alpha, max atom move = 9.53674e-07 7.92132e-09
  Iterations, force evaluations = 20 79

MPI task timing breakdown:
Section |  min time  |  avg time  |  max time  |%varavg| %total
---------------------------------------------------------------
Pair    | 0.081828   | 0.092196   | 0.10344    |   2.0 | 34.90
Kspace  | 0.14547    | 0.14842    | 0.15117    |   0.5 | 56.18
Neigh   | 0          | 0          | 0          |   0.0 |  0.00
Comm    | 0.0095992  | 0.021935   | 0.030552   |   3.9 |  8.30
Output  | 0          | 0          | 0          |   0.0 |  0.00
Modify  | 0          | 0          | 0          |   0.0 |  0.00
Other   |            | 0.001619   |            |       |  0.61

Nlocal:    84 ave 88 max 79 min
Histogram: 1 0 1 2 0 3 1 2 1 1
Nghost:    2608.17 ave 2631 max 2590 min
Histogram: 1 2 2 0 3 0 1 1 1 1
Neighs:    18685.4 ave 19606 max 17507 min
Histogram: 1 1 0 2 0 3 1 1 1 2

Total # of neighbors = 224225
Ave neighs/atom = 222.445
Neighbor list builds = 0
Dangerous builds = 0
  triclinic box = (0.0194211 0 0) to (23.2813 23.3007 23.3007) with tilt (0 0 0)
WARNING: Resetting reneighboring criteria during minimization (../min.cpp:168)
Ewald initialization ...
  G vector (1/distance) = 0.365066
  estimated absolute RMS force accuracy = 1.9345e-05
  estimated relative force accuracy = 1.34344e-06
  KSpace vectors: actual max1d max3d = 2084 10 4630
                  kxmax kymax kzmax  = 10 10 10
Memory usage per processor = 4.56139 Mbytes
Step Temp E_pair E_mol TotEng Press 
      40           10   -18273.406            0   -18272.105   -3702.3284 
      50           10   -18273.424            0   -18272.123   -4784.1852 
Loop time of 0.202085 on 12 procs for 10 steps with 1008 atoms

99.0% CPU use with 12 MPI tasks x no OpenMP threads

Minimization stats:
  Stopping criterion = linesearch alpha is zero
  Energy initial, next-to-last, final = 
        -18273.4064008     -18273.4242716     -18273.4242716
  Force two-norm initial, final = 0.605169 0.106088
  Force max component initial, final = 0.0557215 0.0143523
  Final line search alpha, max atom move = 9.53674e-07 1.36875e-08
  Iterations, force evaluations = 10 59

MPI task timing breakdown:
Section |  min time  |  avg time  |  max time  |%varavg| %total
---------------------------------------------------------------
Pair    | 0.060581   | 0.068456   | 0.078422   |   2.0 | 33.88
Kspace  | 0.11167    | 0.11367    | 0.11519    |   0.3 | 56.25
Neigh   | 0          | 0          | 0          |   0.0 |  0.00
Comm    | 0.0075614  | 0.018439   | 0.02501    |   3.5 |  9.12
Output  | 0          | 0          | 0          |   0.0 |  0.00
Modify  | 0          | 0          | 0          |   0.0 |  0.00
Other   |            | 0.00152    |            |       |  0.75

Nlocal:    84 ave 88 max 79 min
Histogram: 1 0 1 2 0 3 1 2 1 1
Nghost:    2605.17 ave 2629 max 2586 min
Histogram: 2 1 2 0 3 0 1 2 0 1
Neighs:    18654.1 ave 19577 max 17476 min
Histogram: 1 1 0 2 0 3 1 1 1 2

Total # of neighbors = 223849
Ave neighs/atom = 222.072
Neighbor list builds = 0
Dangerous builds = 0
  triclinic box = (0 0 0) to (23.3007 23.3007 23.3007) with tilt (0 0 0)
WARNING: Resetting reneighboring criteria during minimization (../min.cpp:168)
Ewald initialization ...
  G vector (1/distance) = 0.365055
  estimated absolute RMS force accuracy = 1.94166e-05
  estimated relative force accuracy = 1.34841e-06
  KSpace vectors: actual max1d max3d = 2084 10 4630
                  kxmax kymax kzmax  = 10 10 10
Memory usage per processor = 4.56139 Mbytes
Step Temp E_pair E_mol TotEng Press 
      50           10   -18273.318            0   -18272.016   -7220.3934 
      54           10   -18273.318            0   -18272.016   -7214.3481 
Loop time of 0.0939153 on 12 procs for 4 steps with 1008 atoms

99.3% CPU use with 12 MPI tasks x no OpenMP threads

Minimization stats:
  Stopping criterion = linesearch alpha is zero
  Energy initial, next-to-last, final = 
        -18273.3175802     -18273.3175913     -18273.3175913
  Force two-norm initial, final = 0.00474505 0.00212308
  Force max component initial, final = 0.000333224 0.000205213
  Final line search alpha, max atom move = 0.00195312 4.00806e-07
  Iterations, force evaluations = 4 27

MPI task timing breakdown:
Section |  min time  |  avg time  |  max time  |%varavg| %total
---------------------------------------------------------------
Pair    | 0.028271   | 0.031979   | 0.036849   |   1.3 | 34.05
Kspace  | 0.051916   | 0.052746   | 0.053496   |   0.2 | 56.16
Neigh   | 0          | 0          | 0          |   0.0 |  0.00
Comm    | 0.0036004  | 0.008641   | 0.011533   |   2.4 |  9.20
Output  | 0          | 0          | 0          |   0.0 |  0.00
Modify  | 0          | 0          | 0          |   0.0 |  0.00
Other   |            | 0.0005498  |            |       |  0.59

Nlocal:    84 ave 88 max 79 min
Histogram: 1 0 1 2 0 3 1 2 1 1
Nghost:    2601 ave 2626 max 2581 min
Histogram: 2 1 2 0 2 1 1 2 0 1
Neighs:    18623.8 ave 19536 max 17448 min
Histogram: 1 1 0 2 0 3 1 1 1 2

Total # of neighbors = 223485
Ave neighs/atom = 221.711
Neighbor list builds = 0
Dangerous builds = 0
  triclinic box = (-0.0194211 0 0) to (23.3201 23.3007 23.3007) with tilt (0 0 0)
WARNING: Resetting reneighboring criteria during minimization (../min.cpp:168)
Ewald initialization ...
  G vector (1/distance) = 0.365044
  estimated absolute RMS force accuracy = 1.94944e-05
  estimated relative force accuracy = 1.35381e-06
  KSpace vectors: actual max1d max3d = 2084 10 4630
                  kxmax kymax kzmax  = 10 10 10
Memory usage per processor = 4.56139 Mbytes
Step Temp E_pair E_mol TotEng Press 
      54           10   -18273.148            0   -18271.846   -10701.694 
      65           10   -18273.162            0    -18271.86   -9601.0103 
Loop time of 0.208155 on 12 procs for 11 steps with 1008 atoms

99.3% CPU use with 12 MPI tasks x no OpenMP threads

Minimization stats:
  Stopping criterion = linesearch alpha is zero
  Energy initial, next-to-last, final = 
        -18273.1481346     -18273.1617558     -18273.1617558
  Force two-norm initial, final = 0.601008 0.0961409
  Force max component initial, final = 0.0550422 0.00883322
  Final line search alpha, max atom move = 9.53674e-07 8.42402e-09
  Iterations, force evaluations = 11 61

MPI task timing breakdown:
Section |  min time  |  avg time  |  max time  |%varavg| %total
---------------------------------------------------------------
Pair    | 0.062428   | 0.07092    | 0.080993   |   1.8 | 34.07
Kspace  | 0.11533    | 0.11715    | 0.11898    |   0.4 | 56.28
Neigh   | 0          | 0          | 0          |   0.0 |  0.00
Comm    | 0.0071459  | 0.018945   | 0.025695   |   3.6 |  9.10
Output  | 0          | 0          | 0          |   0.0 |  0.00
Modify  | 0          | 0          | 0          |   0.0 |  0.00
Other   |            | 0.001141   |            |       |  0.55

Nlocal:    84 ave 88 max 79 min
Histogram: 1 0 1 2 0 3 1 2 1 1
Nghost:    2597 ave 2623 max 2575 min
Histogram: 1 2 1 1 2 1 0 3 0 1
Neighs:    18593.7 ave 19507 max 17412 min
Histogram: 1 1 0 2 0 2 2 1 1 2

Total # of neighbors = 223124
Ave neighs/atom = 221.353
Neighbor list builds = 0
Dangerous builds = 0
  triclinic box = (-0.0388306 0 0) to (23.3395 23.3007 23.3007) with tilt (0 0 0)
WARNING: Resetting reneighboring criteria during minimization (../min.cpp:168)
Ewald initialization ...
  G vector (1/distance) = 0.365032
  estimated absolute RMS force accuracy = 1.95788e-05
  estimated relative force accuracy = 1.35968e-06
  KSpace vectors: actual max1d max3d = 2084 10 4630
                  kxmax kymax kzmax  = 10 10 10
Memory usage per processor = 4.56139 Mbytes
Step Temp E_pair E_mol TotEng Press 
      65           10   -18272.893            0   -18271.592   -14143.289 
      77           10   -18272.955            0   -18271.653   -11939.398 
Loop time of 0.224866 on 12 procs for 12 steps with 1008 atoms

99.3% CPU use with 12 MPI tasks x no OpenMP threads

Minimization stats:
  Stopping criterion = linesearch alpha is zero
  Energy initial, next-to-last, final = 
        -18272.8932652     -18272.9546792     -18272.9546792
  Force two-norm initial, final = 1.19359 0.175227
  Force max component initial, final = 0.108955 0.0172891
  Final line search alpha, max atom move = 2.38419e-07 4.12204e-09
  Iterations, force evaluations = 12 67

MPI task timing breakdown:
Section |  min time  |  avg time  |  max time  |%varavg| %total
---------------------------------------------------------------
Pair    | 0.068573   | 0.077818   | 0.088598   |   2.0 | 34.61
Kspace  | 0.12505    | 0.12738    | 0.12954    |   0.4 | 56.65
Neigh   | 0          | 0          | 0          |   0.0 |  0.00
Comm    | 0.0078993  | 0.018334   | 0.025486   |   3.6 |  8.15
Output  | 0          | 0          | 0          |   0.0 |  0.00
Modify  | 0          | 0          | 0          |   0.0 |  0.00
Other   |            | 0.001338   |            |       |  0.60

Nlocal:    84 ave 88 max 79 min
Histogram: 1 0 1 2 0 3 1 2 1 1
Nghost:    2595.08 ave 2622 max 2573 min
Histogram: 1 2 2 0 2 1 0 3 0 1
Neighs:    18562.4 ave 19477 max 17382 min
Histogram: 1 1 0 2 0 3 1 1 1 2

Total # of neighbors = 222749
Ave neighs/atom = 220.981
Neighbor list builds = 0
Dangerous builds = 0
  triclinic box = (-0.0582517 0 0) to (23.3589 23.3007 23.3007) with tilt (0 0 0)
WARNING: Resetting reneighboring criteria during minimization (../min.cpp:168)
Ewald initialization ...
  G vector (1/distance) = 0.365021
  estimated absolute RMS force accuracy = 1.96704e-05
  estimated relative force accuracy = 1.36604e-06
  KSpace vectors: actual max1d max3d = 2084 10 4630
                  kxmax kymax kzmax  = 10 10 10
Memory usage per processor = 4.56139 Mbytes
Step Temp E_pair E_mol TotEng Press 
      77           10    -18272.56            0   -18271.258   -17551.062 
     100           10   -18272.709            0   -18271.407   -14048.882 
     106           10   -18272.712            0   -18271.411   -14003.637 
Loop time of 0.331292 on 12 procs for 29 steps with 1008 atoms

99.5% CPU use with 12 MPI tasks x no OpenMP threads

Minimization stats:
  Stopping criterion = linesearch alpha is zero
  Energy initial, next-to-last, final = 
        -18272.5596866     -18272.7123827     -18272.7123827
  Force two-norm initial, final = 1.78 0.11105
  Force max component initial, final = 0.161973 0.0130093
  Final line search alpha, max atom move = 9.53674e-07 1.24066e-08
  Iterations, force evaluations = 29 101

MPI task timing breakdown:
Section |  min time  |  avg time  |  max time  |%varavg| %total
---------------------------------------------------------------
Pair    | 0.10285    | 0.11521    | 0.12986    |   2.2 | 34.77
Kspace  | 0.18379    | 0.18664    | 0.18996    |   0.5 | 56.34
Neigh   | 0          | 0          | 0          |   0.0 |  0.00
Comm    | 0.011336   | 0.027284   | 0.038113   |   4.6 |  8.24
Output  | 2.5988e-05 | 2.8133e-05 | 3.4094e-05 |   0.0 |  0.01
Modify  | 0          | 0          | 0          |   0.0 |  0.00
Other   |            | 0.002132   |            |       |  0.64

Nlocal:    84 ave 88 max 79 min
Histogram: 1 0 1 2 0 3 1 2 1 1
Nghost:    2593.42 ave 2621 max 2572 min
Histogram: 1 2 2 0 3 0 1 2 0 1
Neighs:    18533.8 ave 19450 max 17364 min
Histogram: 1 1 0 2 0 3 1 1 1 2

Total # of neighbors = 222405
Ave neighs/atom = 220.64
Neighbor list builds = 0
Dangerous builds = 0
  triclinic box = (0 0.0582517 0) to (23.3007 23.2424 23.3007) with tilt (0 0 0)
WARNING: Resetting reneighboring criteria during minimization (../min.cpp:168)
Ewald initialization ...
  G vector (1/distance) = 0.365089
  estimated absolute RMS force accuracy = 1.92191e-05
  estimated relative force accuracy = 1.33469e-06
  KSpace vectors: actual max1d max3d = 2088 10 4630
                  kxmax kymax kzmax  = 10 10 10
Memory usage per processor = 4.56139 Mbytes
Step Temp E_pair E_mol TotEng Press 
     106           10   -18273.271            0   -18271.969    3495.9627 
     129           10   -18273.426            0   -18272.124    12.820859 
Loop time of 0.292237 on 12 procs for 23 steps with 1008 atoms

99.4% CPU use with 12 MPI tasks x no OpenMP threads

Minimization stats:
  Stopping criterion = linesearch alpha is zero
  Energy initial, next-to-last, final = 
        -18273.2709126     -18273.4258194     -18273.4258194
  Force two-norm initial, final = 1.78078 0.133509
  Force max component initial, final = 0.172848 0.0196946
  Final line search alpha, max atom move = 4.76837e-07 9.39112e-09
  Iterations, force evaluations = 23 87

MPI task timing breakdown:
Section |  min time  |  avg time  |  max time  |%varavg| %total
---------------------------------------------------------------
Pair    | 0.089676   | 0.10135    | 0.11384    |   2.1 | 34.68
Kspace  | 0.16203    | 0.16464    | 0.16694    |   0.4 | 56.34
Neigh   | 0          | 0          | 0          |   0.0 |  0.00
Comm    | 0.0098708  | 0.024569   | 0.033896   |   4.1 |  8.41
Output  | 0          | 0          | 0          |   0.0 |  0.00
Modify  | 0          | 0          | 0          |   0.0 |  0.00
Other   |            | 0.001685   |            |       |  0.58

Nlocal:    84 ave 88 max 79 min
Histogram: 1 0 1 2 0 3 1 2 1 1
Nghost:    2611.83 ave 2637 max 2593 min
Histogram: 2 2 1 0 1 2 0 3 0 1
Neighs:    18721.9 ave 19656 max 17537 min
Histogram: 1 1 0 2 0 3 1 1 1 2

Total # of neighbors = 224663
Ave neighs/atom = 222.88
Neighbor list builds = 0
Dangerous builds = 0
  triclinic box = (0 0.0388306 0) to (23.3007 23.2618 23.3007) with tilt (0 0 0)
WARNING: Resetting reneighboring criteria during minimization (../min.cpp:168)
Ewald initialization ...
  G vector (1/distance) = 0.365078
  estimated absolute RMS force accuracy = 1.92793e-05
  estimated relative force accuracy = 1.33888e-06
  KSpace vectors: actual max1d max3d = 2084 10 4630
                  kxmax kymax kzmax  = 10 10 10
Memory usage per processor = 4.56139 Mbytes
Step Temp E_pair E_mol TotEng Press 
     129           10   -18273.371            0    -18272.07   -114.84667 
     141           10   -18273.433            0   -18272.131   -2306.7983 
Loop time of 0.225185 on 12 procs for 12 steps with 1008 atoms

99.6% CPU use with 12 MPI tasks x no OpenMP threads

Minimization stats:
  Stopping criterion = linesearch alpha is zero
  Energy initial, next-to-last, final = 
        -18273.3714021     -18273.4326026     -18273.4326026
  Force two-norm initial, final = 1.17991 0.177511
  Force max component initial, final = 0.114146 0.0259263
  Final line search alpha, max atom move = 2.38419e-07 6.18132e-09
  Iterations, force evaluations = 12 67

MPI task timing breakdown:
Section |  min time  |  avg time  |  max time  |%varavg| %total
---------------------------------------------------------------
Pair    | 0.068918   | 0.077895   | 0.089307   |   2.0 | 34.59
Kspace  | 0.12573    | 0.12708    | 0.12928    |   0.3 | 56.44
Neigh   | 0          | 0          | 0          |   0.0 |  0.00
Comm    | 0.0075853  | 0.018919   | 0.026324   |   3.7 |  8.40
Output  | 0          | 0          | 0          |   0.0 |  0.00
Modify  | 0          | 0          | 0          |   0.0 |  0.00
Other   |            | 0.001287   |            |       |  0.57

Nlocal:    84 ave 88 max 79 min
Histogram: 1 0 1 2 0 3 1 2 1 1
Nghost:    2609.42 ave 2635 max 2592 min
Histogram: 3 2 0 0 2 1 2 1 0 1
Neighs:    18689.7 ave 19612 max 17506 min
Histogram: 1 1 0 2 0 3 1 1 1 2

Total # of neighbors = 224276
Ave neighs/atom = 222.496
Neighbor list builds = 0
Dangerous builds = 0
  triclinic box = (0 0.0194211 0) to (23.3007 23.2813 23.3007) with tilt (0 0 0)
WARNING: Resetting reneighboring criteria during minimization (../min.cpp:168)
Ewald initialization ...
  G vector (1/distance) = 0.365066
  estimated absolute RMS force accuracy = 1.9345e-05
  estimated relative force accuracy = 1.34344e-06
  KSpace vectors: actual max1d max3d = 2084 10 4630
                  kxmax kymax kzmax  = 10 10 10
Memory usage per processor = 4.56139 Mbytes
Step Temp E_pair E_mol TotEng Press 
     141           10   -18273.388            0   -18272.086   -3685.7375 
     150           10   -18273.403            0   -18272.102   -4748.1676 
     152           10   -18273.403            0   -18272.102   -4759.5265 
Loop time of 0.209535 on 12 procs for 11 steps with 1008 atoms

99.2% CPU use with 12 MPI tasks x no OpenMP threads

Minimization stats:
  Stopping criterion = linesearch alpha is zero
  Energy initial, next-to-last, final = 
        -18273.3876937     -18273.4033695     -18273.4033695
  Force two-norm initial, final = 0.586146 0.0986591
  Force max component initial, final = 0.0565285 0.0136051
  Final line search alpha, max atom move = 9.53674e-07 1.29748e-08
  Iterations, force evaluations = 11 61

MPI task timing breakdown:
Section |  min time  |  avg time  |  max time  |%varavg| %total
---------------------------------------------------------------
Pair    | 0.062529   | 0.070621   | 0.080983   |   2.0 | 33.70
Kspace  | 0.11792    | 0.11981    | 0.12179    |   0.3 | 57.18
Neigh   | 0          | 0          | 0          |   0.0 |  0.00
Comm    | 0.0070364  | 0.017612   | 0.024344   |   3.6 |  8.41
Output  | 2.5988e-05 | 2.6961e-05 | 3.4809e-05 |   0.0 |  0.01
Modify  | 0          | 0          | 0          |   0.0 |  0.00
Other   |            | 0.001465   |            |       |  0.70

Nlocal:    84 ave 88 max 79 min
Histogram: 1 0 1 2 0 3 1 2 1 1
Nghost:    2604.75 ave 2628 max 2585 min
Histogram: 1 3 1 0 1 2 0 3 0 1
Neighs:    18657 ave 19575 max 17476 min
Histogram: 1 1 0 2 0 3 1 1 1 2

Total # of neighbors = 223884
Ave neighs/atom = 222.107
Neighbor list builds = 0
Dangerous builds = 0
  triclinic box = (0 0 0) to (23.3007 23.3007 23.3007) with tilt (0 0 0)
WARNING: Resetting reneighboring criteria during minimization (../min.cpp:168)
Ewald initialization ...
  G vector (1/distance) = 0.365055
  estimated absolute RMS force accuracy = 1.94166e-05
  estimated relative force accuracy = 1.34841e-06
  KSpace vectors: actual max1d max3d = 2084 10 4630
                  kxmax kymax kzmax  = 10 10 10
Memory usage per processor = 4.56139 Mbytes
Step Temp E_pair E_mol TotEng Press 
     152           10   -18273.318            0   -18272.016   -7220.3934 
     156           10   -18273.318            0   -18272.016   -7214.3481 
Loop time of 0.0905107 on 12 procs for 4 steps with 1008 atoms

100.0% CPU use with 12 MPI tasks x no OpenMP threads

Minimization stats:
  Stopping criterion = linesearch alpha is zero
  Energy initial, next-to-last, final = 
        -18273.3175802     -18273.3175913     -18273.3175913
  Force two-norm initial, final = 0.00474505 0.00212308
  Force max component initial, final = 0.000333224 0.000205213
  Final line search alpha, max atom move = 0.00195312 4.00806e-07
  Iterations, force evaluations = 4 27

MPI task timing breakdown:
Section |  min time  |  avg time  |  max time  |%varavg| %total
---------------------------------------------------------------
Pair    | 0.028504   | 0.032225   | 0.036215   |   1.2 | 35.60
Kspace  | 0.050354   | 0.051551   | 0.052544   |   0.3 | 56.96
Neigh   | 0          | 0          | 0          |   0.0 |  0.00
Comm    | 0.0032492  | 0.0061778  | 0.0088758  |   2.1 |  6.83
Output  | 0          | 0          | 0          |   0.0 |  0.00
Modify  | 0          | 0          | 0          |   0.0 |  0.00
Other   |            | 0.0005564  |            |       |  0.61

Nlocal:    84 ave 88 max 79 min
Histogram: 1 0 1 2 0 3 1 2 1 1
Nghost:    2601 ave 2626 max 2581 min
Histogram: 2 1 2 0 2 1 1 2 0 1
Neighs:    18623.8 ave 19536 max 17448 min
Histogram: 1 1 0 2 0 3 1 1 1 2

Total # of neighbors = 223485
Ave neighs/atom = 221.711
Neighbor list builds = 0
Dangerous builds = 0
  triclinic box = (0 -0.0194211 0) to (23.3007 23.3201 23.3007) with tilt (0 0 0)
WARNING: Resetting reneighboring criteria during minimization (../min.cpp:168)
Ewald initialization ...
  G vector (1/distance) = 0.365044
  estimated absolute RMS force accuracy = 1.94944e-05
  estimated relative force accuracy = 1.35381e-06
  KSpace vectors: actual max1d max3d = 2084 10 4630
                  kxmax kymax kzmax  = 10 10 10
Memory usage per processor = 4.56139 Mbytes
Step Temp E_pair E_mol TotEng Press 
     156           10   -18273.164            0   -18271.862   -10717.505 
     165           10    -18273.18            0   -18271.878   -9661.3082 
Loop time of 0.197876 on 12 procs for 9 steps with 1008 atoms

99.2% CPU use with 12 MPI tasks x no OpenMP threads

Minimization stats:
  Stopping criterion = linesearch alpha is zero
  Energy initial, next-to-last, final = 
        -18273.1640372     -18273.1801345     -18273.1801345
  Force two-norm initial, final = 0.582454 0.12346
  Force max component initial, final = 0.0556741 0.0109626
  Final line search alpha, max atom move = 4.76837e-07 5.2274e-09
  Iterations, force evaluations = 9 59

MPI task timing breakdown:
Section |  min time  |  avg time  |  max time  |%varavg| %total
---------------------------------------------------------------
Pair    | 0.060885   | 0.068744   | 0.077132   |   1.7 | 34.74
Kspace  | 0.10936    | 0.1114     | 0.11321    |   0.4 | 56.30
Neigh   | 0          | 0          | 0          |   0.0 |  0.00
Comm    | 0.0082703  | 0.01617    | 0.021998   |   3.1 |  8.17
Output  | 0          | 0          | 0          |   0.0 |  0.00
Modify  | 0          | 0          | 0          |   0.0 |  0.00
Other   |            | 0.001563   |            |       |  0.79

Nlocal:    84 ave 88 max 79 min
Histogram: 1 0 1 2 0 3 1 2 1 1
Nghost:    2595.58 ave 2622 max 2574 min
Histogram: 2 1 1 1 2 1 1 2 0 1
Neighs:    18591.8 ave 19505 max 17412 min
Histogram: 1 1 0 2 0 3 1 1 1 2

Total # of neighbors = 223101
Ave neighs/atom = 221.33
Neighbor list builds = 0
Dangerous builds = 0
  triclinic box = (0 -0.0388306 0) to (23.3007 23.3395 23.3007) with tilt (0 0 0)
WARNING: Resetting reneighboring criteria during minimization (../min.cpp:168)
Ewald initialization ...
  G vector (1/distance) = 0.365032
  estimated absolute RMS force accuracy = 1.95788e-05
  estimated relative force accuracy = 1.35968e-06
  KSpace vectors: actual max1d max3d = 2084 10 4630
                  kxmax kymax kzmax  = 10 10 10
Memory usage per processor = 4.56139 Mbytes
Step Temp E_pair E_mol TotEng Press 
     165           10   -18272.929            0   -18271.627   -14175.591 
     181           10   -18272.994            0   -18271.693   -11949.392 
Loop time of 0.240232 on 12 procs for 16 steps with 1008 atoms

99.4% CPU use with 12 MPI tasks x no OpenMP threads

Minimization stats:
  Stopping criterion = linesearch alpha is zero
  Energy initial, next-to-last, final = 
        -18272.9285941     -18272.9944711     -18272.9944711
  Force two-norm initial, final = 1.1568 0.124919
  Force max component initial, final = 0.110219 0.0135033
  Final line search alpha, max atom move = 4.76837e-07 6.43888e-09
  Iterations, force evaluations = 16 73

MPI task timing breakdown:
Section |  min time  |  avg time  |  max time  |%varavg| %total
---------------------------------------------------------------
Pair    | 0.073846   | 0.083703   | 0.094785   |   1.9 | 34.84
Kspace  | 0.13288    | 0.13599    | 0.13793    |   0.4 | 56.61
Neigh   | 0          | 0          | 0          |   0.0 |  0.00
Comm    | 0.0088997  | 0.019213   | 0.026957   |   3.7 |  8.00
Output  | 0          | 0          | 0          |   0.0 |  0.00
Modify  | 0          | 0          | 0          |   0.0 |  0.00
Other   |            | 0.001326   |            |       |  0.55

Nlocal:    84 ave 88 max 79 min
Histogram: 1 0 1 2 0 3 1 2 1 1
Nghost:    2590.92 ave 2614 max 2567 min
Histogram: 2 0 1 3 0 0 2 2 1 1
Neighs:    18561.5 ave 19476 max 17386 min
Histogram: 1 1 0 2 0 3 1 1 1 2

Total # of neighbors = 222738
Ave neighs/atom = 220.97
Neighbor list builds = 0
Dangerous builds = 0
  triclinic box = (0 -0.0582517 0) to (23.3007 23.3589 23.3007) with tilt (0 0 0)
WARNING: Resetting reneighboring criteria during minimization (../min.cpp:168)
Ewald initialization ...
  G vector (1/distance) = 0.365021
  estimated absolute RMS force accuracy = 1.96704e-05
  estimated relative force accuracy = 1.36604e-06
  KSpace vectors: actual max1d max3d = 2084 10 4630
                  kxmax kymax kzmax  = 10 10 10
Memory usage per processor = 4.56139 Mbytes
Step Temp E_pair E_mol TotEng Press 
     181           10   -18272.614            0   -18271.313    -17599.79 
     200           10   -18272.764            0   -18271.462   -14241.503 
     205           10   -18272.765            0   -18271.464   -14208.801 
Loop time of 0.292383 on 12 procs for 24 steps with 1008 atoms

99.5% CPU use with 12 MPI tasks x no OpenMP threads

Minimization stats:
  Stopping criterion = linesearch alpha is zero
  Energy initial, next-to-last, final = 
        -18272.6144327     -18272.7654192     -18272.7654192
  Force two-norm initial, final = 1.72525 0.115629
  Force max component initial, final = 0.163797 0.0112183
  Final line search alpha, max atom move = 4.76837e-07 5.3493e-09
  Iterations, force evaluations = 24 89

MPI task timing breakdown:
Section |  min time  |  avg time  |  max time  |%varavg| %total
---------------------------------------------------------------
Pair    | 0.089573   | 0.10148    | 0.11402    |   2.2 | 34.71
Kspace  | 0.16137    | 0.16469    | 0.16851    |   0.5 | 56.33
Neigh   | 0          | 0          | 0          |   0.0 |  0.00
Comm    | 0.010475   | 0.024336   | 0.034033   |   4.3 |  8.32
Output  | 2.5034e-05 | 2.6822e-05 | 3.5048e-05 |   0.0 |  0.01
Modify  | 0          | 0          | 0          |   0.0 |  0.00
Other   |            | 0.00185    |            |       |  0.63

Nlocal:    84 ave 88 max 79 min
Histogram: 1 0 1 2 0 3 1 2 1 1
Nghost:    2582.17 ave 2604 max 2554 min
Histogram: 1 1 0 0 2 2 2 2 1 1
Neighs:    18536.1 ave 19445 max 17362 min
Histogram: 1 1 0 2 0 3 1 1 1 2

Total # of neighbors = 222433
Ave neighs/atom = 220.668
Neighbor list builds = 0
Dangerous builds = 0
  triclinic box = (0 0 0.0582517) to (23.3007 23.3007 23.2424) with tilt (0 0 0)
WARNING: Resetting reneighboring criteria during minimization (../min.cpp:168)
Ewald initialization ...
  G vector (1/distance) = 0.365089
  estimated absolute RMS force accuracy = 1.92191e-05
  estimated relative force accuracy = 1.33469e-06
  KSpace vectors: actual max1d max3d = 2088 10 4630
                  kxmax kymax kzmax  = 10 10 10
Memory usage per processor = 4.56139 Mbytes
Step Temp E_pair E_mol TotEng Press 
     205           10   -18273.353            0   -18272.052    3295.7533 
     228           10   -18273.504            0   -18272.202   -300.56771 
Loop time of 0.292582 on 12 procs for 23 steps with 1008 atoms

99.4% CPU use with 12 MPI tasks x no OpenMP threads

Minimization stats:
  Stopping criterion = linesearch alpha is zero
  Energy initial, next-to-last, final = 
        -18273.3533344     -18273.5039908     -18273.5039908
  Force two-norm initial, final = 1.8864 0.122083
  Force max component initial, final = 0.153552 0.0131488
  Final line search alpha, max atom move = 4.76837e-07 6.26982e-09
  Iterations, force evaluations = 23 89

MPI task timing breakdown:
Section |  min time  |  avg time  |  max time  |%varavg| %total
---------------------------------------------------------------
Pair    | 0.091955   | 0.10412    | 0.11556    |   1.9 | 35.59
Kspace  | 0.16163    | 0.16424    | 0.16718    |   0.5 | 56.14
Neigh   | 0          | 0          | 0          |   0.0 |  0.00
Comm    | 0.010179   | 0.0224     | 0.031682   |   4.0 |  7.66
Output  | 0          | 0          | 0          |   0.0 |  0.00
Modify  | 0          | 0          | 0          |   0.0 |  0.00
Other   |            | 0.001824   |            |       |  0.62

Nlocal:    84 ave 88 max 79 min
Histogram: 1 0 1 2 0 3 1 2 1 1
Nghost:    2617 ave 2641 max 2599 min
Histogram: 2 1 2 2 0 2 0 1 1 1
Neighs:    18715.8 ave 19631 max 17527 min
Histogram: 1 1 0 2 0 2 2 1 1 2

Total # of neighbors = 224589
Ave neighs/atom = 222.807
Neighbor list builds = 0
Dangerous builds = 0
  triclinic box = (0 0 0.0388306) to (23.3007 23.3007 23.2618) with tilt (0 0 0)
WARNING: Resetting reneighboring criteria during minimization (../min.cpp:168)
Ewald initialization ...
  G vector (1/distance) = 0.365078
  estimated absolute RMS force accuracy = 1.92793e-05
  estimated relative force accuracy = 1.33888e-06
  KSpace vectors: actual max1d max3d = 2084 10 4630
                  kxmax kymax kzmax  = 10 10 10
Memory usage per processor = 4.56139 Mbytes
Step Temp E_pair E_mol TotEng Press 
     228           10   -18273.427            0   -18272.125   -247.87453 
     244           10   -18273.492            0   -18272.191   -2558.3092 
Loop time of 0.235524 on 12 procs for 16 steps with 1008 atoms

99.7% CPU use with 12 MPI tasks x no OpenMP threads

Minimization stats:
  Stopping criterion = linesearch alpha is zero
  Energy initial, next-to-last, final = 
        -18273.4269954     -18273.4924142     -18273.4924142
  Force two-norm initial, final = 1.25005 0.121097
  Force max component initial, final = 0.101722 0.0119024
  Final line search alpha, max atom move = 4.76837e-07 5.6755e-09
  Iterations, force evaluations = 16 73

MPI task timing breakdown:
Section |  min time  |  avg time  |  max time  |%varavg| %total
---------------------------------------------------------------
Pair    | 0.0758     | 0.084832   | 0.094674   |   1.6 | 36.02
Kspace  | 0.13097    | 0.1329     | 0.13587    |   0.4 | 56.43
Neigh   | 0          | 0          | 0          |   0.0 |  0.00
Comm    | 0.0078676  | 0.016539   | 0.024043   |   3.6 |  7.02
Output  | 0          | 0          | 0          |   0.0 |  0.00
Modify  | 0          | 0          | 0          |   0.0 |  0.00
Other   |            | 0.001249   |            |       |  0.53

Nlocal:    84 ave 88 max 79 min
Histogram: 1 0 1 2 0 3 1 2 1 1
Nghost:    2614.25 ave 2639 max 2595 min
Histogram: 2 1 0 4 0 1 1 2 0 1
Neighs:    18683.8 ave 19598 max 17501 min
Histogram: 1 1 0 2 0 3 1 1 1 2

Total # of neighbors = 224205
Ave neighs/atom = 222.426
Neighbor list builds = 0
Dangerous builds = 0
  triclinic box = (0 0 0.0194211) to (23.3007 23.3007 23.2813) with tilt (0 0 0)
WARNING: Resetting reneighboring criteria during minimization (../min.cpp:168)
Ewald initialization ...
  G vector (1/distance) = 0.365066
  estimated absolute RMS force accuracy = 1.9345e-05
  estimated relative force accuracy = 1.34344e-06
  KSpace vectors: actual max1d max3d = 2084 10 4630
                  kxmax kymax kzmax  = 10 10 10
Memory usage per processor = 4.56139 Mbytes
Step Temp E_pair E_mol TotEng Press 
     244           10   -18273.414            0   -18272.113   -3751.6357 
     250           10   -18273.429            0   -18272.127    -4731.823 
     253           10   -18273.431            0   -18272.129   -4813.8396 
Loop time of 0.189366 on 12 procs for 9 steps with 1008 atoms

100.2% CPU use with 12 MPI tasks x no OpenMP threads

Minimization stats:
  Stopping criterion = linesearch alpha is zero
  Energy initial, next-to-last, final = 
        -18273.4144329     -18273.4311393     -18273.4311393
  Force two-norm initial, final = 0.621084 0.116803
  Force max component initial, final = 0.050564 0.0101789
  Final line search alpha, max atom move = 4.76837e-07 4.85368e-09
  Iterations, force evaluations = 9 59

MPI task timing breakdown:
Section |  min time  |  avg time  |  max time  |%varavg| %total
---------------------------------------------------------------
Pair    | 0.059194   | 0.067336   | 0.076967   |   1.8 | 35.56
Kspace  | 0.10552    | 0.10787    | 0.10966    |   0.4 | 56.96
Neigh   | 0          | 0          | 0          |   0.0 |  0.00
Comm    | 0.0059466  | 0.013218   | 0.019531   |   3.5 |  6.98
Output  | 2.2888e-05 | 2.5531e-05 | 3.314e-05  |   0.0 |  0.01
Modify  | 0          | 0          | 0          |   0.0 |  0.00
Other   |            | 0.0009185  |            |       |  0.49

Nlocal:    84 ave 88 max 79 min
Histogram: 1 0 1 2 0 3 1 2 1 1
Nghost:    2606.5 ave 2637 max 2587 min
Histogram: 2 2 1 1 2 0 2 1 0 1
Neighs:    18656.3 ave 19574 max 17479 min
Histogram: 1 1 0 2 0 3 1 1 1 2

Total # of neighbors = 223876
Ave neighs/atom = 222.099
Neighbor list builds = 0
Dangerous builds = 0
  triclinic box = (0 0 0) to (23.3007 23.3007 23.3007) with tilt (0 0 0)
WARNING: Resetting reneighboring criteria during minimization (../min.cpp:168)
Ewald initialization ...
  G vector (1/distance) = 0.365055
  estimated absolute RMS force accuracy = 1.94166e-05
  estimated relative force accuracy = 1.34841e-06
  KSpace vectors: actual max1d max3d = 2084 10 4630
                  kxmax kymax kzmax  = 10 10 10
Memory usage per processor = 4.56139 Mbytes
Step Temp E_pair E_mol TotEng Press 
     253           10   -18273.318            0   -18272.016   -7220.3934 
     257           10   -18273.318            0   -18272.016   -7214.3481 
Loop time of 0.0880009 on 12 procs for 4 steps with 1008 atoms

100.0% CPU use with 12 MPI tasks x no OpenMP threads

Minimization stats:
  Stopping criterion = linesearch alpha is zero
  Energy initial, next-to-last, final = 
        -18273.3175802     -18273.3175913     -18273.3175913
  Force two-norm initial, final = 0.00474505 0.00212308
  Force max component initial, final = 0.000333224 0.000205213
  Final line search alpha, max atom move = 0.00195312 4.00806e-07
  Iterations, force evaluations = 4 27

MPI task timing breakdown:
Section |  min time  |  avg time  |  max time  |%varavg| %total
---------------------------------------------------------------
Pair    | 0.02784    | 0.03137    | 0.035651   |   1.1 | 35.65
Kspace  | 0.048904   | 0.050114   | 0.05119    |   0.3 | 56.95
Neigh   | 0          | 0          | 0          |   0.0 |  0.00
Comm    | 0.0027168  | 0.0060782  | 0.0090208  |   2.4 |  6.91
Output  | 0          | 0          | 0          |   0.0 |  0.00
Modify  | 0          | 0          | 0          |   0.0 |  0.00
Other   |            | 0.0004388  |            |       |  0.50

Nlocal:    84 ave 88 max 79 min
Histogram: 1 0 1 2 0 3 1 2 1 1
Nghost:    2601 ave 2626 max 2581 min
Histogram: 2 1 2 0 2 1 1 2 0 1
Neighs:    18623.8 ave 19536 max 17448 min
Histogram: 1 1 0 2 0 3 1 1 1 2

Total # of neighbors = 223485
Ave neighs/atom = 221.711
Neighbor list builds = 0
Dangerous builds = 0
  triclinic box = (0 0 -0.0194211) to (23.3007 23.3007 23.3201) with tilt (0 0 0)
WARNING: Resetting reneighboring criteria during minimization (../min.cpp:168)
Ewald initialization ...
  G vector (1/distance) = 0.365044
  estimated absolute RMS force accuracy = 1.94944e-05
  estimated relative force accuracy = 1.35381e-06
  KSpace vectors: actual max1d max3d = 2084 10 4630
                  kxmax kymax kzmax  = 10 10 10
Memory usage per processor = 4.56139 Mbytes
Step Temp E_pair E_mol TotEng Press 
     257           10   -18273.144            0   -18271.842   -10653.856 
     265           10   -18273.159            0   -18271.857   -9616.9167 
Loop time of 0.183337 on 12 procs for 8 steps with 1008 atoms

99.8% CPU use with 12 MPI tasks x no OpenMP threads

Minimization stats:
  Stopping criterion = linesearch alpha is zero
  Energy initial, next-to-last, final = 
        -18273.1437189     -18273.1588089     -18273.1588089
  Force two-norm initial, final = 0.617259 0.13593
  Force max component initial, final = 0.0498541 0.0134568
  Final line search alpha, max atom move = 4.76837e-07 6.41672e-09
  Iterations, force evaluations = 8 57

MPI task timing breakdown:
Section |  min time  |  avg time  |  max time  |%varavg| %total
---------------------------------------------------------------
Pair    | 0.05868    | 0.065828   | 0.074318   |   1.5 | 35.91
Kspace  | 0.10211    | 0.10423    | 0.10609    |   0.4 | 56.85
Neigh   | 0          | 0          | 0          |   0.0 |  0.00
Comm    | 0.0059659  | 0.012302   | 0.018135   |   3.2 |  6.71
Output  | 0          | 0          | 0          |   0.0 |  0.00
Modify  | 0          | 0          | 0          |   0.0 |  0.00
Other   |            | 0.0009754  |            |       |  0.53

Nlocal:    84 ave 88 max 79 min
Histogram: 1 0 1 2 0 3 1 2 1 1
Nghost:    2598 ave 2624 max 2579 min
Histogram: 2 1 2 0 3 0 2 1 0 1
Neighs:    18594.8 ave 19515 max 17418 min
Histogram: 1 1 0 2 0 3 1 1 1 2

Total # of neighbors = 223137
Ave neighs/atom = 221.366
Neighbor list builds = 0
Dangerous builds = 0
  triclinic box = (0 0 -0.0388306) to (23.3007 23.3007 23.3395) with tilt (0 0 0)
WARNING: Resetting reneighboring criteria during minimization (../min.cpp:168)
Ewald initialization ...
  G vector (1/distance) = 0.365032
  estimated absolute RMS force accuracy = 1.95788e-05
  estimated relative force accuracy = 1.35968e-06
  KSpace vectors: actual max1d max3d = 2084 10 4630
                  kxmax kymax kzmax  = 10 10 10
Memory usage per processor = 4.56139 Mbytes
Step Temp E_pair E_mol TotEng Press 
     265           10   -18272.887            0   -18271.585   -14048.782 
     281           10    -18272.95            0   -18271.648   -11747.657 
Loop time of 0.233107 on 12 procs for 16 steps with 1008 atoms

99.8% CPU use with 12 MPI tasks x no OpenMP threads

Minimization stats:
  Stopping criterion = linesearch alpha is zero
  Energy initial, next-to-last, final = 
        -18272.8869881     -18272.9501096     -18272.9501096
  Force two-norm initial, final = 1.22607 0.127742
  Force max component initial, final = 0.0990278 0.0134259
  Final line search alpha, max atom move = 4.76837e-07 6.40195e-09
  Iterations, force evaluations = 16 73

MPI task timing breakdown:
Section |  min time  |  avg time  |  max time  |%varavg| %total
---------------------------------------------------------------
Pair    | 0.075327   | 0.083916   | 0.094058   |   1.6 | 36.00
Kspace  | 0.13028    | 0.13324    | 0.13659    |   0.5 | 57.16
Neigh   | 0          | 0          | 0          |   0.0 |  0.00
Comm    | 0.007524   | 0.014676   | 0.021725   |   3.3 |  6.30
Output  | 0          | 0          | 0          |   0.0 |  0.00
Modify  | 0          | 0          | 0          |   0.0 |  0.00
Other   |            | 0.001273   |            |       |  0.55

Nlocal:    84 ave 88 max 79 min
Histogram: 1 0 1 2 0 3 1 2 1 1
Nghost:    2596.75 ave 2622 max 2577 min
Histogram: 2 0 3 0 2 1 2 0 1 1
Neighs:    18564.4 ave 19481 max 17381 min
Histogram: 1 1 0 2 0 3 1 1 1 2

Total # of neighbors = 222773
Ave neighs/atom = 221.005
Neighbor list builds = 0
Dangerous builds = 0
  triclinic box = (0 0 -0.0582517) to (23.3007 23.3007 23.3589) with tilt (0 0 0)
WARNING: Resetting reneighboring criteria during minimization (../min.cpp:168)
Ewald initialization ...
  G vector (1/distance) = 0.365021
  estimated absolute RMS force accuracy = 1.96704e-05
  estimated relative force accuracy = 1.36604e-06
  KSpace vectors: actual max1d max3d = 2084 10 4630
                  kxmax kymax kzmax  = 10 10 10
Memory usage per processor = 4.56139 Mbytes
Step Temp E_pair E_mol TotEng Press 
     281           10   -18272.552            0   -18271.251   -17410.623 
     300           10   -18272.697            0   -18271.396   -13900.799 
     309           10   -18272.703            0   -18271.402   -13774.316 
Loop time of 0.302211 on 12 procs for 28 steps with 1008 atoms

99.9% CPU use with 12 MPI tasks x no OpenMP threads

Minimization stats:
  Stopping criterion = linesearch alpha is zero
  Energy initial, next-to-last, final = 
        -18272.5522011     -18272.7033378     -18272.7033378
  Force two-norm initial, final = 1.82877 0.110629
  Force max component initial, final = 0.147654 0.0129665
  Final line search alpha, max atom move = 9.53674e-07 1.23659e-08
  Iterations, force evaluations = 28 95

MPI task timing breakdown:
Section |  min time  |  avg time  |  max time  |%varavg| %total
---------------------------------------------------------------
Pair    | 0.095328   | 0.10758    | 0.12157    |   2.1 | 35.60
Kspace  | 0.16926    | 0.17181    | 0.17455    |   0.4 | 56.85
Neigh   | 0          | 0          | 0          |   0.0 |  0.00
Comm    | 0.0096874  | 0.021087   | 0.031127   |   4.3 |  6.98
Output  | 2.5988e-05 | 2.6981e-05 | 3.4094e-05 |   0.0 |  0.01
Modify  | 0          | 0          | 0          |   0.0 |  0.00
Other   |            | 0.001709   |            |       |  0.57

Nlocal:    84 ave 88 max 79 min
Histogram: 1 0 1 2 0 3 1 2 1 1
Nghost:    2591 ave 2613 max 2573 min
Histogram: 2 1 1 1 1 2 2 0 1 1
Neighs:    18534.2 ave 19445 max 17353 min
Histogram: 1 1 0 2 0 3 1 1 1 2

Total # of neighbors = 222410
Ave neighs/atom = 220.645
Neighbor list builds = 0
Dangerous builds = 0
  triclinic box = (0 0 0) to (23.3007 23.3007 23.3007) with tilt (-0.116503 0 0)
WARNING: Resetting reneighboring criteria during minimization (../min.cpp:168)
Ewald initialization ...
  G vector (1/distance) = 0.365055
  estimated absolute RMS force accuracy = 1.94166e-05
  estimated relative force accuracy = 1.34841e-06
  KSpace vectors: actual max1d max3d = 2079 10 4630
                  kxmax kymax kzmax  = 10 10 10
Memory usage per processor = 4.56139 Mbytes
Step Temp E_pair E_mol TotEng Press 
     309           10    -18273.24            0   -18271.938   -7200.9405 
     327           10   -18273.298            0   -18271.996    -7078.598 
Loop time of 0.303693 on 12 procs for 18 steps with 1008 atoms

100.0% CPU use with 12 MPI tasks x no OpenMP threads

Minimization stats:
  Stopping criterion = linesearch alpha is zero
  Energy initial, next-to-last, final = 
        -18273.2395071     -18273.2975977     -18273.2975977
  Force two-norm initial, final = 1.2327 0.0976378
  Force max component initial, final = 0.132 0.0142743
  Final line search alpha, max atom move = 9.53674e-07 1.3613e-08
  Iterations, force evaluations = 18 95

MPI task timing breakdown:
Section |  min time  |  avg time  |  max time  |%varavg| %total
---------------------------------------------------------------
Pair    | 0.097836   | 0.10913    | 0.12301    |   1.9 | 35.93
Kspace  | 0.16892    | 0.1721     | 0.17479    |   0.4 | 56.67
Neigh   | 0          | 0          | 0          |   0.0 |  0.00
Comm    | 0.010128   | 0.020772   | 0.030461   |   4.1 |  6.84
Output  | 0          | 0          | 0          |   0.0 |  0.00
Modify  | 0          | 0          | 0          |   0.0 |  0.00
Other   |            | 0.001687   |            |       |  0.56

Nlocal:    84 ave 88 max 79 min
Histogram: 1 0 1 2 0 3 1 2 1 1
Nghost:    2601 ave 2626 max 2581 min
Histogram: 2 1 2 0 2 1 1 2 0 1
Neighs:    18625.4 ave 19545 max 17444 min
Histogram: 1 1 0 2 0 3 1 1 1 2

Total # of neighbors = 223505
Ave neighs/atom = 221.731
Neighbor list builds = 0
Dangerous builds = 0
  triclinic box = (0 0 0) to (23.3007 23.3007 23.3007) with tilt (-0.077661 0 0)
WARNING: Resetting reneighboring criteria during minimization (../min.cpp:168)
Ewald initialization ...
  G vector (1/distance) = 0.365055
  estimated absolute RMS force accuracy = 1.94166e-05
  estimated relative force accuracy = 1.34841e-06
  KSpace vectors: actual max1d max3d = 2081 10 4630
                  kxmax kymax kzmax  = 10 10 10
Memory usage per processor = 4.56139 Mbytes
Step Temp E_pair E_mol TotEng Press 
     327           10   -18273.291            0    -18271.99   -7211.4578 
     334           10   -18273.314            0   -18272.012   -7159.4875 
Loop time of 0.182867 on 12 procs for 7 steps with 1008 atoms

99.7% CPU use with 12 MPI tasks x no OpenMP threads

Minimization stats:
  Stopping criterion = linesearch alpha is zero
  Energy initial, next-to-last, final = 
        -18273.2914745     -18273.3138447     -18273.3138447
  Force two-norm initial, final = 0.821758 0.202875
  Force max component initial, final = 0.0880389 0.0256764
  Final line search alpha, max atom move = 2.38419e-07 6.12172e-09
  Iterations, force evaluations = 7 57

MPI task timing breakdown:
Section |  min time  |  avg time  |  max time  |%varavg| %total
---------------------------------------------------------------
Pair    | 0.059363   | 0.066308   | 0.074324   |   1.5 | 36.26
Kspace  | 0.10187    | 0.10432    | 0.10587    |   0.4 | 57.05
Neigh   | 0          | 0          | 0          |   0.0 |  0.00
Comm    | 0.0058458  | 0.011364   | 0.016894   |   2.9 |  6.21
Output  | 0          | 0          | 0          |   0.0 |  0.00
Modify  | 0          | 0          | 0          |   0.0 |  0.00
Other   |            | 0.0008741  |            |       |  0.48

Nlocal:    84 ave 88 max 79 min
Histogram: 1 0 1 2 0 3 1 2 1 1
Nghost:    2601 ave 2626 max 2581 min
Histogram: 2 1 2 0 2 1 1 2 0 1
Neighs:    18626.9 ave 19544 max 17442 min
Histogram: 1 1 0 2 0 3 1 1 1 2

Total # of neighbors = 223523
Ave neighs/atom = 221.749
Neighbor list builds = 0
Dangerous builds = 0
  triclinic box = (0 0 0) to (23.3007 23.3007 23.3007) with tilt (-0.038842 0 0)
WARNING: Resetting reneighboring criteria during minimization (../min.cpp:168)
Ewald initialization ...
  G vector (1/distance) = 0.365055
  estimated absolute RMS force accuracy = 1.94166e-05
  estimated relative force accuracy = 1.34841e-06
  KSpace vectors: actual max1d max3d = 2082 10 4630
                  kxmax kymax kzmax  = 10 10 10
Memory usage per processor = 4.56139 Mbytes
Step Temp E_pair E_mol TotEng Press 
     334           10   -18273.318            0   -18272.016   -7218.0482 
     342           10   -18273.323            0   -18272.022   -7182.7586 
Loop time of 0.175799 on 12 procs for 8 steps with 1008 atoms

100.0% CPU use with 12 MPI tasks x no OpenMP threads

Minimization stats:
  Stopping criterion = linesearch alpha is zero
  Energy initial, next-to-last, final = 
        -18273.3179605     -18273.3234405     -18273.3234405
  Force two-norm initial, final = 0.411109 0.0869057
  Force max component initial, final = 0.0440566 0.00920481
  Final line search alpha, max atom move = 9.53674e-07 8.77839e-09
  Iterations, force evaluations = 8 55

MPI task timing breakdown:
Section |  min time  |  avg time  |  max time  |%varavg| %total
---------------------------------------------------------------
Pair    | 0.055899   | 0.062885   | 0.070995   |   1.5 | 35.77
Kspace  | 0.09826    | 0.099702   | 0.10156    |   0.3 | 56.71
Neigh   | 0          | 0          | 0          |   0.0 |  0.00
Comm    | 0.005712   | 0.012395   | 0.018269   |   3.4 |  7.05
Output  | 0          | 0          | 0          |   0.0 |  0.00
Modify  | 0          | 0          | 0          |   0.0 |  0.00
Other   |            | 0.0008169  |            |       |  0.46

Nlocal:    84 ave 88 max 79 min
Histogram: 1 0 1 2 0 3 1 2 1 1
Nghost:    2601 ave 2626 max 2581 min
Histogram: 2 1 2 0 2 1 1 2 0 1
Neighs:    18625.1 ave 19544 max 17448 min
Histogram: 1 1 0 2 0 3 1 1 1 2

Total # of neighbors = 223501
Ave neighs/atom = 221.727
Neighbor list builds = 0
Dangerous builds = 0
  triclinic box = (0 0 0) to (23.3007 23.3007 23.3007) with tilt (0 0 0)
WARNING: Resetting reneighboring criteria during minimization (../min.cpp:168)
Ewald initialization ...
  G vector (1/distance) = 0.365055
  estimated absolute RMS force accuracy = 1.94166e-05
  estimated relative force accuracy = 1.34841e-06
  KSpace vectors: actual max1d max3d = 2084 10 4630
                  kxmax kymax kzmax  = 10 10 10
Memory usage per processor = 4.56139 Mbytes
Step Temp E_pair E_mol TotEng Press 
     342           10   -18273.318            0   -18272.016   -7220.3934 
     346           10   -18273.318            0   -18272.016   -7214.3481 
Loop time of 0.0884235 on 12 procs for 4 steps with 1008 atoms

99.8% CPU use with 12 MPI tasks x no OpenMP threads

Minimization stats:
  Stopping criterion = linesearch alpha is zero
  Energy initial, next-to-last, final = 
        -18273.3175802     -18273.3175913     -18273.3175913
  Force two-norm initial, final = 0.00474505 0.00212308
  Force max component initial, final = 0.000333224 0.000205213
  Final line search alpha, max atom move = 0.00195312 4.00806e-07
  Iterations, force evaluations = 4 27

MPI task timing breakdown:
Section |  min time  |  avg time  |  max time  |%varavg| %total
---------------------------------------------------------------
Pair    | 0.027778   | 0.031381   | 0.035926   |   1.2 | 35.49
Kspace  | 0.04925    | 0.050435   | 0.051615   |   0.3 | 57.04
Neigh   | 0          | 0          | 0          |   0.0 |  0.00
Comm    | 0.0028012  | 0.0061598  | 0.0091159  |   2.4 |  6.97
Output  | 0          | 0          | 0          |   0.0 |  0.00
Modify  | 0          | 0          | 0          |   0.0 |  0.00
Other   |            | 0.0004482  |            |       |  0.51

Nlocal:    84 ave 88 max 79 min
Histogram: 1 0 1 2 0 3 1 2 1 1
Nghost:    2601 ave 2626 max 2581 min
Histogram: 2 1 2 0 2 1 1 2 0 1
Neighs:    18623.8 ave 19536 max 17448 min
Histogram: 1 1 0 2 0 3 1 1 1 2

Total # of neighbors = 223485
Ave neighs/atom = 221.711
Neighbor list builds = 0
Dangerous builds = 0
  triclinic box = (0 0 0) to (23.3007 23.3007 23.3007) with tilt (0.038842 0 0)
WARNING: Resetting reneighboring criteria during minimization (../min.cpp:168)
Ewald initialization ...
  G vector (1/distance) = 0.365055
  estimated absolute RMS force accuracy = 1.94166e-05
  estimated relative force accuracy = 1.34841e-06
  KSpace vectors: actual max1d max3d = 2082 10 4630
                  kxmax kymax kzmax  = 10 10 10
Memory usage per processor = 4.56139 Mbytes
Step Temp E_pair E_mol TotEng Press 
     346           10    -18273.29            0   -18271.988   -7218.2856 
     350           10   -18273.295            0   -18271.993   -7228.9018 
     356           10   -18273.296            0   -18271.994   -7244.0043 
Loop time of 0.183375 on 12 procs for 10 steps with 1008 atoms

99.6% CPU use with 12 MPI tasks x no OpenMP threads

Minimization stats:
  Stopping criterion = linesearch alpha is zero
  Energy initial, next-to-last, final = 
        -18273.2901375     -18273.2957928     -18273.2957928
  Force two-norm initial, final = 0.410971 0.0693834
  Force max component initial, final = 0.0441192 0.00817034
  Final line search alpha, max atom move = 1.90735e-06 1.55837e-08
  Iterations, force evaluations = 10 57

MPI task timing breakdown:
Section |  min time  |  avg time  |  max time  |%varavg| %total
---------------------------------------------------------------
Pair    | 0.057814   | 0.06574    | 0.074268   |   1.6 | 35.85
Kspace  | 0.10125    | 0.10364    | 0.10548    |   0.5 | 56.52
Neigh   | 0          | 0          | 0          |   0.0 |  0.00
Comm    | 0.0060434  | 0.012965   | 0.01906    |   3.4 |  7.07
Output  | 2.408e-05  | 2.569e-05  | 3.2902e-05 |   0.0 |  0.01
Modify  | 0          | 0          | 0          |   0.0 |  0.00
Other   |            | 0.0009996  |            |       |  0.55

Nlocal:    84 ave 88 max 79 min
Histogram: 1 0 1 2 0 3 1 2 1 1
Nghost:    2601 ave 2626 max 2581 min
Histogram: 2 1 2 0 2 1 1 2 0 1
Neighs:    18624.8 ave 19540 max 17447 min
Histogram: 1 1 0 2 0 3 1 1 1 2

Total # of neighbors = 223498
Ave neighs/atom = 221.724
Neighbor list builds = 0
Dangerous builds = 0
  triclinic box = (0 0 0) to (23.3007 23.3007 23.3007) with tilt (0.077661 0 0)
WARNING: Resetting reneighboring criteria during minimization (../min.cpp:168)
Ewald initialization ...
  G vector (1/distance) = 0.365055
  estimated absolute RMS force accuracy = 1.94166e-05
  estimated relative force accuracy = 1.34841e-06
  KSpace vectors: actual max1d max3d = 2081 10 4630
                  kxmax kymax kzmax  = 10 10 10
Memory usage per processor = 4.56139 Mbytes
Step Temp E_pair E_mol TotEng Press 
     356           10   -18273.235            0   -18271.934   -7211.8228 
     365           10   -18273.258            0   -18271.956   -7267.3611 
Loop time of 0.189773 on 12 procs for 9 steps with 1008 atoms

100.1% CPU use with 12 MPI tasks x no OpenMP threads

Minimization stats:
  Stopping criterion = linesearch alpha is zero
  Energy initial, next-to-last, final = 
        -18273.2352635     -18273.2580694     -18273.2580694
  Force two-norm initial, final = 0.821715 0.152645
  Force max component initial, final = 0.0882558 0.0129508
  Final line search alpha, max atom move = 4.76837e-07 6.17544e-09
  Iterations, force evaluations = 9 59

MPI task timing breakdown:
Section |  min time  |  avg time  |  max time  |%varavg| %total
---------------------------------------------------------------
Pair    | 0.062318   | 0.069081   | 0.076905   |   1.3 | 36.40
Kspace  | 0.10523    | 0.10698    | 0.10919    |   0.4 | 56.37
Neigh   | 0          | 0          | 0          |   0.0 |  0.00
Comm    | 0.0062516  | 0.012718   | 0.018702   |   3.2 |  6.70
Output  | 0          | 0          | 0          |   0.0 |  0.00
Modify  | 0          | 0          | 0          |   0.0 |  0.00
Other   |            | 0.0009894  |            |       |  0.52

Nlocal:    84 ave 88 max 79 min
Histogram: 1 0 1 2 0 3 1 2 1 1
Nghost:    2601 ave 2626 max 2581 min
Histogram: 2 1 2 0 2 1 1 2 0 1
Neighs:    18626.2 ave 19536 max 17454 min
Histogram: 1 1 0 2 0 3 1 1 1 2

Total # of neighbors = 223515
Ave neighs/atom = 221.741
Neighbor list builds = 0
Dangerous builds = 0
  triclinic box = (0 0 0) to (23.3007 23.3007 23.3007) with tilt (0.116503 0 0)
WARNING: Resetting reneighboring criteria during minimization (../min.cpp:168)
Ewald initialization ...
  G vector (1/distance) = 0.365055
  estimated absolute RMS force accuracy = 1.94166e-05
  estimated relative force accuracy = 1.34841e-06
  KSpace vectors: actual max1d max3d = 2079 10 4630
                  kxmax kymax kzmax  = 10 10 10
Memory usage per processor = 4.56139 Mbytes
Step Temp E_pair E_mol TotEng Press 
     365           10   -18273.147            0   -18271.845   -7199.4331 
     379           10   -18273.209            0   -18271.907   -7323.3105 
Loop time of 0.2204 on 12 procs for 14 steps with 1008 atoms

100.1% CPU use with 12 MPI tasks x no OpenMP threads

Minimization stats:
  Stopping criterion = linesearch alpha is zero
  Energy initial, next-to-last, final = 
        -18273.1471131     -18273.2089085     -18273.2089085
  Force two-norm initial, final = 1.23281 0.139181
  Force max component initial, final = 0.132433 0.0138877
  Final line search alpha, max atom move = 4.76837e-07 6.62217e-09
  Iterations, force evaluations = 14 69

MPI task timing breakdown:
Section |  min time  |  avg time  |  max time  |%varavg| %total
---------------------------------------------------------------
Pair    | 0.070904   | 0.079598   | 0.089264   |   1.6 | 36.12
Kspace  | 0.12285    | 0.12537    | 0.12747    |   0.5 | 56.88
Neigh   | 0          | 0          | 0          |   0.0 |  0.00
Comm    | 0.0071683  | 0.014301   | 0.021137   |   3.3 |  6.49
Output  | 0          | 0          | 0          |   0.0 |  0.00
Modify  | 0          | 0          | 0          |   0.0 |  0.00
Other   |            | 0.001135   |            |       |  0.51

Nlocal:    84 ave 88 max 79 min
Histogram: 1 0 1 2 0 3 1 2 1 1
Nghost:    2601 ave 2626 max 2581 min
Histogram: 2 1 2 0 2 1 1 2 0 1
Neighs:    18625.8 ave 19542 max 17448 min
Histogram: 1 1 0 2 0 3 1 1 1 2

Total # of neighbors = 223510
Ave neighs/atom = 221.736
Neighbor list builds = 0
Dangerous builds = 0
  triclinic box = (0 0 0) to (23.3007 23.3007 23.3007) with tilt (0 -0.116503 0)
WARNING: Resetting reneighboring criteria during minimization (../min.cpp:168)
Ewald initialization ...
  G vector (1/distance) = 0.365055
  estimated absolute RMS force accuracy = 1.94166e-05
  estimated relative force accuracy = 1.34841e-06
  KSpace vectors: actual max1d max3d = 2079 10 4630
                  kxmax kymax kzmax  = 10 10 10
Memory usage per processor = 4.56139 Mbytes
Step Temp E_pair E_mol TotEng Press 
     379           10   -18273.236            0   -18271.935   -7128.9061 
     388           10   -18273.291            0    -18271.99   -7101.7132 
Loop time of 0.201429 on 12 procs for 9 steps with 1008 atoms

99.9% CPU use with 12 MPI tasks x no OpenMP threads

Minimization stats:
  Stopping criterion = linesearch alpha is zero
  Energy initial, next-to-last, final = 
        -18273.2362891     -18273.2912528     -18273.2912528
  Force two-norm initial, final = 1.22667 0.240599
  Force max component initial, final = 0.112915 0.0284239
  Final line search alpha, max atom move = 1.19209e-07 3.38839e-09
  Iterations, force evaluations = 9 63

MPI task timing breakdown:
Section |  min time  |  avg time  |  max time  |%varavg| %total
---------------------------------------------------------------
Pair    | 0.063415   | 0.071786   | 0.081511   |   1.8 | 35.64
Kspace  | 0.11234    | 0.1143     | 0.11632    |   0.4 | 56.74
Neigh   | 0          | 0          | 0          |   0.0 |  0.00
Comm    | 0.0065932  | 0.014379   | 0.021114   |   3.6 |  7.14
Output  | 0          | 0          | 0          |   0.0 |  0.00
Modify  | 0          | 0          | 0          |   0.0 |  0.00
Other   |            | 0.0009639  |            |       |  0.48

Nlocal:    84 ave 88 max 79 min
Histogram: 1 0 1 2 0 3 1 2 1 1
Nghost:    2601 ave 2626 max 2581 min
Histogram: 2 1 2 0 2 1 1 2 0 1
Neighs:    18624.5 ave 19548 max 17430 min
Histogram: 1 1 0 2 0 3 1 1 1 2

Total # of neighbors = 223494
Ave neighs/atom = 221.72
Neighbor list builds = 0
Dangerous builds = 0
  triclinic box = (0 0 0) to (23.3007 23.3007 23.3007) with tilt (0 -0.077661 0)
WARNING: Resetting reneighboring criteria during minimization (../min.cpp:168)
Ewald initialization ...
  G vector (1/distance) = 0.365055
  estimated absolute RMS force accuracy = 1.94166e-05
  estimated relative force accuracy = 1.34841e-06
  KSpace vectors: actual max1d max3d = 2081 10 4630
                  kxmax kymax kzmax  = 10 10 10
Memory usage per processor = 4.56139 Mbytes
Step Temp E_pair E_mol TotEng Press 
     388           10   -18273.291            0    -18271.99   -7164.3652 
     400           10   -18273.317            0   -18272.016   -7147.2246 
     406           10   -18273.319            0   -18272.017   -7126.7859 
Loop time of 0.240962 on 12 procs for 18 steps with 1008 atoms

99.9% CPU use with 12 MPI tasks x no OpenMP threads

Minimization stats:
  Stopping criterion = linesearch alpha is zero
  Energy initial, next-to-last, final = 
        -18273.2913687     -18273.3185635     -18273.3185635
  Force two-norm initial, final = 0.817679 0.0860872
  Force max component initial, final = 0.075365 0.00816984
  Final line search alpha, max atom move = 9.53674e-07 7.79136e-09
  Iterations, force evaluations = 18 75

MPI task timing breakdown:
Section |  min time  |  avg time  |  max time  |%varavg| %total
---------------------------------------------------------------
Pair    | 0.077297   | 0.086466   | 0.097591   |   1.7 | 35.88
Kspace  | 0.13403    | 0.13645    | 0.13982    |   0.4 | 56.63
Neigh   | 0          | 0          | 0          |   0.0 |  0.00
Comm    | 0.0079565  | 0.016618   | 0.024333   |   3.7 |  6.90
Output  | 2.3842e-05 | 2.5491e-05 | 3.3855e-05 |   0.1 |  0.01
Modify  | 0          | 0          | 0          |   0.0 |  0.00
Other   |            | 0.001406   |            |       |  0.58

Nlocal:    84 ave 88 max 79 min
Histogram: 1 0 1 2 0 3 1 2 1 1
Nghost:    2601 ave 2626 max 2581 min
Histogram: 2 1 2 0 2 1 1 2 0 1
Neighs:    18623.6 ave 19545 max 17438 min
Histogram: 1 1 0 2 0 3 1 1 1 2

Total # of neighbors = 223483
Ave neighs/atom = 221.709
Neighbor list builds = 0
Dangerous builds = 0
  triclinic box = (0 0 0) to (23.3007 23.3007 23.3007) with tilt (0 -0.038842 0)
WARNING: Resetting reneighboring criteria during minimization (../min.cpp:168)
Ewald initialization ...
  G vector (1/distance) = 0.365055
  estimated absolute RMS force accuracy = 1.94166e-05
  estimated relative force accuracy = 1.34841e-06
  KSpace vectors: actual max1d max3d = 2082 10 4630
                  kxmax kymax kzmax  = 10 10 10
Memory usage per processor = 4.56139 Mbytes
Step Temp E_pair E_mol TotEng Press 
     406           10   -18273.319            0   -18272.018   -7195.0744 
     416           10   -18273.326            0   -18272.025    -7179.633 
Loop time of 0.30872 on 12 procs for 10 steps with 1008 atoms

100.0% CPU use with 12 MPI tasks x no OpenMP threads

Minimization stats:
  Stopping criterion = linesearch alpha is zero
  Energy initial, next-to-last, final = 
        -18273.3191526      -18273.326244      -18273.326244
  Force two-norm initial, final = 0.408964 0.0734437
  Force max component initial, final = 0.0377382 0.00812881
  Final line search alpha, max atom move = 1.90735e-06 1.55045e-08
  Iterations, force evaluations = 10 97

MPI task timing breakdown:
Section |  min time  |  avg time  |  max time  |%varavg| %total
---------------------------------------------------------------
Pair    | 0.10062    | 0.1119     | 0.12461    |   1.7 | 36.25
Kspace  | 0.17255    | 0.17559    | 0.17889    |   0.5 | 56.88
Neigh   | 0          | 0          | 0          |   0.0 |  0.00
Comm    | 0.010098   | 0.019743   | 0.029062   |   3.8 |  6.39
Output  | 0          | 0          | 0          |   0.0 |  0.00
Modify  | 0          | 0          | 0          |   0.0 |  0.00
Other   |            | 0.001482   |            |       |  0.48

Nlocal:    84 ave 88 max 79 min
Histogram: 1 0 1 2 0 3 1 2 1 1
Nghost:    2601 ave 2626 max 2581 min
Histogram: 2 1 2 0 2 1 1 2 0 1
Neighs:    18623.2 ave 19539 max 17445 min
Histogram: 1 1 0 2 0 2 2 1 1 2

Total # of neighbors = 223479
Ave neighs/atom = 221.705
Neighbor list builds = 0
Dangerous builds = 0
  triclinic box = (0 0 0) to (23.3007 23.3007 23.3007) with tilt (0 0 0)
WARNING: Resetting reneighboring criteria during minimization (../min.cpp:168)
Ewald initialization ...
  G vector (1/distance) = 0.365055
  estimated absolute RMS force accuracy = 1.94166e-05
  estimated relative force accuracy = 1.34841e-06
  KSpace vectors: actual max1d max3d = 2084 10 4630
                  kxmax kymax kzmax  = 10 10 10
Memory usage per processor = 4.56139 Mbytes
Step Temp E_pair E_mol TotEng Press 
     416           10   -18273.318            0   -18272.016   -7220.3934 
     420           10   -18273.318            0   -18272.016   -7214.3481 
Loop time of 0.0884973 on 12 procs for 4 steps with 1008 atoms

99.8% CPU use with 12 MPI tasks x no OpenMP threads

Minimization stats:
  Stopping criterion = linesearch alpha is zero
  Energy initial, next-to-last, final = 
        -18273.3175802     -18273.3175913     -18273.3175913
  Force two-norm initial, final = 0.00474505 0.00212308
  Force max component initial, final = 0.000333224 0.000205213
  Final line search alpha, max atom move = 0.00195312 4.00806e-07
  Iterations, force evaluations = 4 27

MPI task timing breakdown:
Section |  min time  |  avg time  |  max time  |%varavg| %total
---------------------------------------------------------------
Pair    | 0.028148   | 0.031569   | 0.035703   |   1.1 | 35.67
Kspace  | 0.049444   | 0.050338   | 0.051439   |   0.3 | 56.88
Neigh   | 0          | 0          | 0          |   0.0 |  0.00
Comm    | 0.0028927  | 0.006128   | 0.0090084  |   2.3 |  6.92
Output  | 0          | 0          | 0          |   0.0 |  0.00
Modify  | 0          | 0          | 0          |   0.0 |  0.00
Other   |            | 0.000462   |            |       |  0.52

Nlocal:    84 ave 88 max 79 min
Histogram: 1 0 1 2 0 3 1 2 1 1
Nghost:    2601 ave 2626 max 2581 min
Histogram: 2 1 2 0 2 1 1 2 0 1
Neighs:    18623.8 ave 19536 max 17448 min
Histogram: 1 1 0 2 0 3 1 1 1 2

Total # of neighbors = 223485
Ave neighs/atom = 221.711
Neighbor list builds = 0
Dangerous builds = 0
  triclinic box = (0 0 0) to (23.3007 23.3007 23.3007) with tilt (0 0.038842 0)
WARNING: Resetting reneighboring criteria during minimization (../min.cpp:168)
Ewald initialization ...
  G vector (1/distance) = 0.365055
  estimated absolute RMS force accuracy = 1.94166e-05
  estimated relative force accuracy = 1.34841e-06
  KSpace vectors: actual max1d max3d = 2082 10 4630
                  kxmax kymax kzmax  = 10 10 10
Memory usage per processor = 4.56139 Mbytes
Step Temp E_pair E_mol TotEng Press 
     420           10   -18273.291            0   -18271.989   -7241.2677 
     426           10   -18273.295            0   -18271.994   -7240.9693 
Loop time of 0.163789 on 12 procs for 6 steps with 1008 atoms

99.9% CPU use with 12 MPI tasks x no OpenMP threads

Minimization stats:
  Stopping criterion = linesearch alpha is zero
  Energy initial, next-to-last, final = 
         -18273.290584     -18273.2952682     -18273.2952682
  Force two-norm initial, final = 0.40886 0.109828
  Force max component initial, final = 0.0378693 0.0132413
  Final line search alpha, max atom move = 9.53674e-07 1.26279e-08
  Iterations, force evaluations = 6 51

MPI task timing breakdown:
Section |  min time  |  avg time  |  max time  |%varavg| %total
---------------------------------------------------------------
Pair    | 0.051618   | 0.058444   | 0.066536   |   1.6 | 35.68
Kspace  | 0.091394   | 0.093077   | 0.094575   |   0.4 | 56.83
Neigh   | 0          | 0          | 0          |   0.0 |  0.00
Comm    | 0.0050819  | 0.01149    | 0.016943   |   3.2 |  7.01
Output  | 0          | 0          | 0          |   0.0 |  0.00
Modify  | 0          | 0          | 0          |   0.0 |  0.00
Other   |            | 0.0007785  |            |       |  0.48

Nlocal:    84 ave 88 max 79 min
Histogram: 1 0 1 2 0 3 1 2 1 1
Nghost:    2601 ave 2626 max 2581 min
Histogram: 2 1 2 0 2 1 1 2 0 1
Neighs:    18627 ave 19539 max 17449 min
Histogram: 1 1 0 2 0 3 1 1 1 2

Total # of neighbors = 223524
Ave neighs/atom = 221.75
Neighbor list builds = 0
Dangerous builds = 0
  triclinic box = (0 0 0) to (23.3007 23.3007 23.3007) with tilt (0 0.077661 0)
WARNING: Resetting reneighboring criteria during minimization (../min.cpp:168)
Ewald initialization ...
  G vector (1/distance) = 0.365055
  estimated absolute RMS force accuracy = 1.94166e-05
  estimated relative force accuracy = 1.34841e-06
  KSpace vectors: actual max1d max3d = 2081 10 4630
                  kxmax kymax kzmax  = 10 10 10
Memory usage per processor = 4.56139 Mbytes
Step Temp E_pair E_mol TotEng Press 
     426           10   -18273.236            0   -18271.934   -7257.3224 
     444           10   -18273.262            0    -18271.96   -7281.0028 
Loop time of 0.371751 on 12 procs for 18 steps with 1008 atoms

100.0% CPU use with 12 MPI tasks x no OpenMP threads

Minimization stats:
  Stopping criterion = linesearch alpha is zero
  Energy initial, next-to-last, final = 
        -18273.2357754      -18273.261782      -18273.261782
  Force two-norm initial, final = 0.81751 0.083892
  Force max component initial, final = 0.0758093 0.00886737
  Final line search alpha, max atom move = 9.53674e-07 8.45659e-09
  Iterations, force evaluations = 18 117

MPI task timing breakdown:
Section |  min time  |  avg time  |  max time  |%varavg| %total
---------------------------------------------------------------
Pair    | 0.11857    | 0.13381    | 0.15024    |   2.1 | 35.99
Kspace  | 0.20739    | 0.21073    | 0.21446    |   0.5 | 56.69
Neigh   | 0          | 0          | 0          |   0.0 |  0.00
Comm    | 0.012184   | 0.025343   | 0.037346   |   4.6 |  6.82
Output  | 0          | 0          | 0          |   0.0 |  0.00
Modify  | 0          | 0          | 0          |   0.0 |  0.00
Other   |            | 0.001871   |            |       |  0.50

Nlocal:    84 ave 88 max 79 min
Histogram: 1 0 1 2 0 3 1 2 1 1
Nghost:    2601 ave 2626 max 2581 min
Histogram: 2 1 2 0 2 1 1 2 0 1
Neighs:    18628.5 ave 19547 max 17448 min
Histogram: 1 1 0 2 0 3 1 1 1 2

Total # of neighbors = 223542
Ave neighs/atom = 221.768
Neighbor list builds = 0
Dangerous builds = 0
  triclinic box = (0 0 0) to (23.3007 23.3007 23.3007) with tilt (0 0.116503 0)
WARNING: Resetting reneighboring criteria during minimization (../min.cpp:168)
Ewald initialization ...
  G vector (1/distance) = 0.365055
  estimated absolute RMS force accuracy = 1.94166e-05
  estimated relative force accuracy = 1.34841e-06
  KSpace vectors: actual max1d max3d = 2079 10 4630
                  kxmax kymax kzmax  = 10 10 10
Memory usage per processor = 4.56139 Mbytes
Step Temp E_pair E_mol TotEng Press 
     444           10   -18273.152            0   -18271.851   -7268.2998 
     450           10   -18273.204            0   -18271.902   -7309.3855 
     458           10   -18273.213            0   -18271.912    -7291.691 
Loop time of 0.226625 on 12 procs for 14 steps with 1008 atoms

100.0% CPU use with 12 MPI tasks x no OpenMP threads

Minimization stats:
  Stopping criterion = linesearch alpha is zero
  Energy initial, next-to-last, final = 
        -18273.1524088     -18273.2133044     -18273.2133044
  Force two-norm initial, final = 1.22643 0.163659
  Force max component initial, final = 0.113882 0.0156939
  Final line search alpha, max atom move = 2.38419e-07 3.74172e-09
  Iterations, force evaluations = 14 71

MPI task timing breakdown:
Section |  min time  |  avg time  |  max time  |%varavg| %total
---------------------------------------------------------------
Pair    | 0.073249   | 0.081655   | 0.091436   |   1.6 | 36.03
Kspace  | 0.12669    | 0.12871    | 0.13042    |   0.4 | 56.79
Neigh   | 0          | 0          | 0          |   0.0 |  0.00
Comm    | 0.0072796  | 0.015049   | 0.02208    |   3.4 |  6.64
Output  | 2.3842e-05 | 2.5352e-05 | 3.2902e-05 |   0.0 |  0.01
Modify  | 0          | 0          | 0          |   0.0 |  0.00
Other   |            | 0.001191   |            |       |  0.53

Nlocal:    84 ave 88 max 79 min
Histogram: 1 0 1 2 0 3 1 2 1 1
Nghost:    2601 ave 2626 max 2581 min
Histogram: 2 1 2 0 2 1 1 2 0 1
Neighs:    18627.6 ave 19547 max 17442 min
Histogram: 1 1 0 2 0 3 1 1 1 2

Total # of neighbors = 223531
Ave neighs/atom = 221.757
Neighbor list builds = 0
Dangerous builds = 0
  triclinic box = (0 0 0) to (23.3007 23.3007 23.3007) with tilt (0 0 -0.116503)
WARNING: Resetting reneighboring criteria during minimization (../min.cpp:168)
Ewald initialization ...
  G vector (1/distance) = 0.365055
  estimated absolute RMS force accuracy = 1.94166e-05
  estimated relative force accuracy = 1.34841e-06
  KSpace vectors: actual max1d max3d = 2079 10 4630
                  kxmax kymax kzmax  = 10 10 10
Memory usage per processor = 4.56139 Mbytes
Step Temp E_pair E_mol TotEng Press 
     458           10   -18273.401            0   -18272.099   -7199.2127 
     472           10   -18273.459            0   -18272.157   -7129.8081 
Loop time of 0.226921 on 12 procs for 14 steps with 1008 atoms

100.0% CPU use with 12 MPI tasks x no OpenMP threads

Minimization stats:
  Stopping criterion = linesearch alpha is zero
  Energy initial, next-to-last, final = 
        -18273.4009589     -18273.4589595     -18273.4589595
  Force two-norm initial, final = 1.27278 0.162348
  Force max component initial, final = 0.119527 0.0170667
  Final line search alpha, max atom move = 2.38419e-07 4.06902e-09
  Iterations, force evaluations = 14 71

MPI task timing breakdown:
Section |  min time  |  avg time  |  max time  |%varavg| %total
---------------------------------------------------------------
Pair    | 0.071514   | 0.081029   | 0.092108   |   1.8 | 35.71
Kspace  | 0.12644    | 0.129      | 0.13132    |   0.4 | 56.85
Neigh   | 0          | 0          | 0          |   0.0 |  0.00
Comm    | 0.0072415  | 0.015708   | 0.023203   |   3.7 |  6.92
Output  | 0          | 0          | 0          |   0.0 |  0.00
Modify  | 0          | 0          | 0          |   0.0 |  0.00
Other   |            | 0.00118    |            |       |  0.52

Nlocal:    84 ave 88 max 79 min
Histogram: 1 0 1 2 0 3 1 2 1 1
Nghost:    2601 ave 2626 max 2581 min
Histogram: 2 1 2 0 2 1 1 2 0 1
Neighs:    18626.5 ave 19541 max 17444 min
Histogram: 1 1 0 2 0 3 1 1 1 2

Total # of neighbors = 223518
Ave neighs/atom = 221.744
Neighbor list builds = 0
Dangerous builds = 0
  triclinic box = (0 0 0) to (23.3007 23.3007 23.3007) with tilt (0 0 -0.077661)
WARNING: Resetting reneighboring criteria during minimization (../min.cpp:168)
Ewald initialization ...
  G vector (1/distance) = 0.365055
  estimated absolute RMS force accuracy = 1.94166e-05
  estimated relative force accuracy = 1.34841e-06
  KSpace vectors: actual max1d max3d = 2081 10 4630
                  kxmax kymax kzmax  = 10 10 10
Memory usage per processor = 4.56139 Mbytes
Step Temp E_pair E_mol TotEng Press 
     472           10   -18273.398            0   -18272.096   -7210.2556 
     490           10   -18273.426            0   -18272.125   -7162.4219 
Loop time of 0.353913 on 12 procs for 18 steps with 1008 atoms

99.9% CPU use with 12 MPI tasks x no OpenMP threads

Minimization stats:
  Stopping criterion = linesearch alpha is zero
  Energy initial, next-to-last, final = 
        -18273.3975433     -18273.4262384     -18273.4262384
  Force two-norm initial, final = 0.848472 0.0836419
  Force max component initial, final = 0.0796294 0.00702823
  Final line search alpha, max atom move = 9.53674e-07 6.70265e-09
  Iterations, force evaluations = 18 111

MPI task timing breakdown:
Section |  min time  |  avg time  |  max time  |%varavg| %total
---------------------------------------------------------------
Pair    | 0.11301    | 0.12678    | 0.14324    |   2.2 | 35.82
Kspace  | 0.19743    | 0.20155    | 0.2046     |   0.5 | 56.95
Neigh   | 0          | 0          | 0          |   0.0 |  0.00
Comm    | 0.011429   | 0.023744   | 0.03491    |   4.4 |  6.71
Output  | 0          | 0          | 0          |   0.0 |  0.00
Modify  | 0          | 0          | 0          |   0.0 |  0.00
Other   |            | 0.001838   |            |       |  0.52

Nlocal:    84 ave 88 max 79 min
Histogram: 1 0 1 2 0 3 1 2 1 1
Nghost:    2601 ave 2626 max 2581 min
Histogram: 2 1 2 0 2 1 1 2 0 1
Neighs:    18625.9 ave 19541 max 17446 min
Histogram: 1 1 0 2 0 3 1 1 1 2

Total # of neighbors = 223511
Ave neighs/atom = 221.737
Neighbor list builds = 0
Dangerous builds = 0
  triclinic box = (0 0 0) to (23.3007 23.3007 23.3007) with tilt (0 0 -0.038842)
WARNING: Resetting reneighboring criteria during minimization (../min.cpp:168)
Ewald initialization ...
  G vector (1/distance) = 0.365055
  estimated absolute RMS force accuracy = 1.94166e-05
  estimated relative force accuracy = 1.34841e-06
  KSpace vectors: actual max1d max3d = 2082 10 4630
                  kxmax kymax kzmax  = 10 10 10
Memory usage per processor = 4.56139 Mbytes
Step Temp E_pair E_mol TotEng Press 
[...]
  Energy initial, next-to-last, final = 
        -18273.6256448     -18273.6347495     -18273.6347495
  Force two-norm initial, final = 0.411709 0.0549253
  Force max component initial, final = 0.0375203 0.00532229
  Final line search alpha, max atom move = 3.8147e-06 2.03029e-08
  Iterations, force evaluations = 16 105

MPI task timing breakdown:
Section |  min time  |  avg time  |  max time  |%varavg| %total
---------------------------------------------------------------
Pair    | 0.10583    | 0.12067    | 0.13749    |   2.2 | 35.69
Kspace  | 0.18818    | 0.19177    | 0.19497    |   0.5 | 56.71
Neigh   | 0          | 0          | 0          |   0.0 |  0.00
Comm    | 0.010804   | 0.023972   | 0.035569   |   4.2 |  7.09
Output  | 0          | 0          | 0          |   0.0 |  0.00
Modify  | 0          | 0          | 0          |   0.0 |  0.00
Other   |            | 0.001724   |            |       |  0.51

Nlocal:    84 ave 88 max 78 min
Histogram: 1 0 0 1 1 2 1 3 1 2
Nghost:    2602 ave 2624 max 2585 min
Histogram: 1 3 1 1 2 0 1 2 0 1
Neighs:    18622.3 ave 19577 max 17218 min
Histogram: 1 0 0 2 1 2 1 2 1 2

Total # of neighbors = 223468
Ave neighs/atom = 221.694
Neighbor list builds = 0
Dangerous builds = 0
  triclinic box = (0 0 0) to (23.3007 23.3007 23.3007) with tilt (0 0.077661 0)
WARNING: Resetting reneighboring criteria during minimization (../min.cpp:168)
Ewald initialization ...
  G vector (1/distance) = 0.365055
  estimated absolute RMS force accuracy = 1.94166e-05
  estimated relative force accuracy = 1.34841e-06
  KSpace vectors: actual max1d max3d = 2081 10 4630
                  kxmax kymax kzmax  = 10 10 10
Memory usage per processor = 4.56139 Mbytes
Step Temp E_pair E_mol TotEng Press 
    1000           10   -18273.557            0   -18272.255   -5500.9033 
    1013           10   -18273.585            0   -18272.283   -5528.0034 
Loop time of 0.216012 on 12 procs for 13 steps with 1008 atoms

100.0% CPU use with 12 MPI tasks x no OpenMP threads

Minimization stats:
  Stopping criterion = linesearch alpha is zero
  Energy initial, next-to-last, final = 
        -18273.5567322     -18273.5847355     -18273.5847355
  Force two-norm initial, final = 0.823177 0.127737
  Force max component initial, final = 0.0751062 0.0113762
  Final line search alpha, max atom move = 4.76837e-07 5.4246e-09
  Iterations, force evaluations = 13 67

MPI task timing breakdown:
Section |  min time  |  avg time  |  max time  |%varavg| %total
---------------------------------------------------------------
Pair    | 0.067138   | 0.076766   | 0.087717   |   1.8 | 35.54
Kspace  | 0.12049    | 0.12278    | 0.12493    |   0.4 | 56.84
Neigh   | 0          | 0          | 0          |   0.0 |  0.00
Comm    | 0.0067594  | 0.015389   | 0.022829   |   3.4 |  7.12
Output  | 0          | 0          | 0          |   0.0 |  0.00
Modify  | 0          | 0          | 0          |   0.0 |  0.00
Other   |            | 0.001072   |            |       |  0.50

Nlocal:    84 ave 88 max 78 min
Histogram: 1 0 0 1 1 2 1 3 1 2
Nghost:    2602 ave 2624 max 2585 min
Histogram: 1 3 1 1 2 0 1 2 0 1
Neighs:    18624.2 ave 19577 max 17218 min
Histogram: 1 0 0 2 1 2 1 2 1 2

Total # of neighbors = 223490
Ave neighs/atom = 221.716
Neighbor list builds = 0
Dangerous builds = 0
  triclinic box = (0 0 0) to (23.3007 23.3007 23.3007) with tilt (0 0.116503 0)
WARNING: Resetting reneighboring criteria during minimization (../min.cpp:168)
Ewald initialization ...
  G vector (1/distance) = 0.365055
  estimated absolute RMS force accuracy = 1.94166e-05
  estimated relative force accuracy = 1.34841e-06
  KSpace vectors: actual max1d max3d = 2079 10 4630
                  kxmax kymax kzmax  = 10 10 10
Memory usage per processor = 4.56139 Mbytes
Step Temp E_pair E_mol TotEng Press 
    1013           10   -18273.457            0   -18272.156   -5509.3487 
    1038           10   -18273.528            0   -18272.226   -5608.7179 
Loop time of 0.298905 on 12 procs for 25 steps with 1008 atoms

99.9% CPU use with 12 MPI tasks x no OpenMP threads

Minimization stats:
  Stopping criterion = linesearch alpha is zero
  Energy initial, next-to-last, final = 
        -18273.4572177     -18273.5276009     -18273.5276009
  Force two-norm initial, final = 1.23497 0.142832
  Force max component initial, final = 0.112838 0.0114155
  Final line search alpha, max atom move = 4.76837e-07 5.44334e-09
  Iterations, force evaluations = 25 93

MPI task timing breakdown:
Section |  min time  |  avg time  |  max time  |%varavg| %total
---------------------------------------------------------------
Pair    | 0.093846   | 0.10682    | 0.1214     |   2.0 | 35.74
Kspace  | 0.16624    | 0.16939    | 0.17212    |   0.4 | 56.67
Neigh   | 0          | 0          | 0          |   0.0 |  0.00
Comm    | 0.0096326  | 0.021036   | 0.03123    |   3.9 |  7.04
Output  | 0          | 0          | 0          |   0.0 |  0.00
Modify  | 0          | 0          | 0          |   0.0 |  0.00
Other   |            | 0.001663   |            |       |  0.56

Nlocal:    84 ave 88 max 78 min
Histogram: 1 0 0 1 1 2 1 3 1 2
Nghost:    2602 ave 2624 max 2585 min
Histogram: 1 3 1 1 2 0 1 2 0 1
Neighs:    18625 ave 19583 max 17219 min
Histogram: 1 0 0 2 1 2 1 2 1 2

Total # of neighbors = 223500
Ave neighs/atom = 221.726
Neighbor list builds = 0
Dangerous builds = 0
  triclinic box = (0 0 0) to (23.3007 23.3007 23.3007) with tilt (0 0 -0.116503)
WARNING: Resetting reneighboring criteria during minimization (../min.cpp:168)
Ewald initialization ...
  G vector (1/distance) = 0.365055
  estimated absolute RMS force accuracy = 1.94166e-05
  estimated relative force accuracy = 1.34841e-06
  KSpace vectors: actual max1d max3d = 2079 10 4630
                  kxmax kymax kzmax  = 10 10 10
Memory usage per processor = 4.56139 Mbytes
Step Temp E_pair E_mol TotEng Press 
    1038           10   -18273.764            0   -18272.462   -5446.0397 
    1050           10   -18273.821            0    -18272.52   -5364.6797 
    1058           10   -18273.825            0   -18272.524   -5357.5115 
Loop time of 0.361258 on 12 procs for 20 steps with 1008 atoms

99.8% CPU use with 12 MPI tasks x no OpenMP threads

Minimization stats:
  Stopping criterion = linesearch alpha is zero
  Energy initial, next-to-last, final = 
        -18273.7638901     -18273.8252481     -18273.8252481
  Force two-norm initial, final = 1.27342 0.107836
  Force max component initial, final = 0.118843 0.0121326
  Final line search alpha, max atom move = 9.53674e-07 1.15705e-08
  Iterations, force evaluations = 20 113

MPI task timing breakdown:
Section |  min time  |  avg time  |  max time  |%varavg| %total
---------------------------------------------------------------
Pair    | 0.11218    | 0.1287     | 0.1468     |   2.3 | 35.62
Kspace  | 0.20127    | 0.2053     | 0.20936    |   0.6 | 56.83
Neigh   | 0          | 0          | 0          |   0.0 |  0.00
Comm    | 0.011393   | 0.025417   | 0.037829   |   4.4 |  7.04
Output  | 2.5034e-05 | 2.5849e-05 | 3.3855e-05 |   0.0 |  0.01
Modify  | 0          | 0          | 0          |   0.0 |  0.00
Other   |            | 0.001817   |            |       |  0.50

Nlocal:    84 ave 88 max 78 min
Histogram: 1 0 0 1 1 2 1 3 1 2
Nghost:    2602 ave 2624 max 2585 min
Histogram: 1 3 1 1 2 0 1 2 0 1
Neighs:    18624.8 ave 19576 max 17215 min
Histogram: 1 0 0 2 0 3 1 2 1 2

Total # of neighbors = 223498
Ave neighs/atom = 221.724
Neighbor list builds = 0
Dangerous builds = 0
  triclinic box = (0 0 0) to (23.3007 23.3007 23.3007) with tilt (0 0 -0.077661)
WARNING: Resetting reneighboring criteria during minimization (../min.cpp:168)
Ewald initialization ...
  G vector (1/distance) = 0.365055
  estimated absolute RMS force accuracy = 1.94166e-05
  estimated relative force accuracy = 1.34841e-06
  KSpace vectors: actual max1d max3d = 2081 10 4630
                  kxmax kymax kzmax  = 10 10 10
Memory usage per processor = 4.56139 Mbytes
Step Temp E_pair E_mol TotEng Press 
    1058           10    -18273.76            0   -18272.459   -5458.4276 
    1068           10   -18273.787            0   -18272.485   -5407.6944 
Loop time of 0.197778 on 12 procs for 10 steps with 1008 atoms

100.0% CPU use with 12 MPI tasks x no OpenMP threads

Minimization stats:
  Stopping criterion = linesearch alpha is zero
  Energy initial, next-to-last, final = 
        -18273.7602718     -18273.7868961     -18273.7868961
  Force two-norm initial, final = 0.84891 0.14154
  Force max component initial, final = 0.0791917 0.015833
  Final line search alpha, max atom move = 4.76837e-07 7.54977e-09
  Iterations, force evaluations = 10 61

MPI task timing breakdown:
Section |  min time  |  avg time  |  max time  |%varavg| %total
---------------------------------------------------------------
Pair    | 0.061074   | 0.069836   | 0.080118   |   1.8 | 35.31
Kspace  | 0.11014    | 0.11262    | 0.11492    |   0.4 | 56.94
Neigh   | 0          | 0          | 0          |   0.0 |  0.00
Comm    | 0.0065126  | 0.014296   | 0.021155   |   3.3 |  7.23
Output  | 0          | 0          | 0          |   0.0 |  0.00
Modify  | 0          | 0          | 0          |   0.0 |  0.00
Other   |            | 0.001028   |            |       |  0.52

Nlocal:    84 ave 88 max 78 min
Histogram: 1 0 0 1 1 2 1 3 1 2
Nghost:    2602 ave 2624 max 2585 min
Histogram: 1 3 1 1 2 0 1 2 0 1
Neighs:    18623.6 ave 19576 max 17215 min
Histogram: 1 0 0 2 1 2 1 2 1 2

Total # of neighbors = 223483
Ave neighs/atom = 221.709
Neighbor list builds = 0
Dangerous builds = 0
  triclinic box = (0 0 0) to (23.3007 23.3007 23.3007) with tilt (0 0 -0.038842)
WARNING: Resetting reneighboring criteria during minimization (../min.cpp:168)
Ewald initialization ...
  G vector (1/distance) = 0.365055
  estimated absolute RMS force accuracy = 1.94166e-05
  estimated relative force accuracy = 1.34841e-06
  KSpace vectors: actual max1d max3d = 2082 10 4630
                  kxmax kymax kzmax  = 10 10 10
Memory usage per processor = 4.56139 Mbytes
Step Temp E_pair E_mol TotEng Press 
    1068           10   -18273.729            0   -18272.428   -5466.1768 
    1073           10   -18273.735            0   -18272.433   -5437.9393 
Loop time of 0.165745 on 12 procs for 5 steps with 1008 atoms

99.6% CPU use with 12 MPI tasks x no OpenMP threads

Minimization stats:
  Stopping criterion = linesearch alpha is zero
  Energy initial, next-to-last, final = 
         -18273.729426     -18273.7349123     -18273.7349123
  Force two-norm initial, final = 0.424621 0.129193
  Force max component initial, final = 0.039608 0.0158909
  Final line search alpha, max atom move = 4.76837e-07 7.57739e-09
  Iterations, force evaluations = 5 51

MPI task timing breakdown:
Section |  min time  |  avg time  |  max time  |%varavg| %total
---------------------------------------------------------------
Pair    | 0.051583   | 0.059057   | 0.067555   |   1.6 | 35.63
Kspace  | 0.092044   | 0.094435   | 0.096334   |   0.4 | 56.98
Neigh   | 0          | 0          | 0          |   0.0 |  0.00
Comm    | 0.0053318  | 0.011419   | 0.016974   |   2.8 |  6.89
Output  | 0          | 0          | 0          |   0.0 |  0.00
Modify  | 0          | 0          | 0          |   0.0 |  0.00
Other   |            | 0.0008343  |            |       |  0.50

Nlocal:    84 ave 88 max 78 min
Histogram: 1 0 0 1 1 2 1 3 1 2
Nghost:    2602 ave 2624 max 2585 min
Histogram: 1 3 1 1 2 0 1 2 0 1
Neighs:    18622.6 ave 19576 max 17217 min
Histogram: 1 0 0 2 1 2 1 2 1 2

Total # of neighbors = 223471
Ave neighs/atom = 221.697
Neighbor list builds = 0
Dangerous builds = 0
  triclinic box = (0 0 0) to (23.3007 23.3007 23.3007) with tilt (0 0 0)
WARNING: Resetting reneighboring criteria during minimization (../min.cpp:168)
Ewald initialization ...
  G vector (1/distance) = 0.365055
  estimated absolute RMS force accuracy = 1.94166e-05
  estimated relative force accuracy = 1.34841e-06
  KSpace vectors: actual max1d max3d = 2084 10 4630
                  kxmax kymax kzmax  = 10 10 10
Memory usage per processor = 4.56139 Mbytes
Step Temp E_pair E_mol TotEng Press 
    1073           10   -18273.671            0   -18272.369   -5469.1715 
    1079           10   -18273.671            0    -18272.37   -5461.6359 
Loop time of 0.108132 on 12 procs for 6 steps with 1008 atoms

99.9% CPU use with 12 MPI tasks x no OpenMP threads

Minimization stats:
  Stopping criterion = linesearch alpha is zero
  Energy initial, next-to-last, final = 
        -18273.6711452     -18273.6711875     -18273.6711875
  Force two-norm initial, final = 0.00476289 0.00158591
  Force max component initial, final = 0.000335681 0.000194782
  Final line search alpha, max atom move = 0.00390625 7.60866e-07
  Iterations, force evaluations = 6 33

MPI task timing breakdown:
Section |  min time  |  avg time  |  max time  |%varavg| %total
---------------------------------------------------------------
Pair    | 0.034775   | 0.039103   | 0.043869   |   1.0 | 36.16
Kspace  | 0.060165   | 0.061325   | 0.062316   |   0.3 | 56.71
Neigh   | 0          | 0          | 0          |   0.0 |  0.00
Comm    | 0.0035324  | 0.0071019  | 0.010577   |   2.1 |  6.57
Output  | 0          | 0          | 0          |   0.0 |  0.00
Modify  | 0          | 0          | 0          |   0.0 |  0.00
Other   |            | 0.0006023  |            |       |  0.56

Nlocal:    84 ave 88 max 78 min
Histogram: 1 0 0 1 1 2 1 3 1 2
Nghost:    2602 ave 2624 max 2585 min
Histogram: 1 3 1 1 2 0 1 2 0 1
Neighs:    18623.5 ave 19578 max 17216 min
Histogram: 1 0 0 2 1 2 1 2 1 2

Total # of neighbors = 223482
Ave neighs/atom = 221.708
Neighbor list builds = 0
Dangerous builds = 0
  triclinic box = (0 0 0) to (23.3007 23.3007 23.3007) with tilt (0 0 0.038842)
WARNING: Resetting reneighboring criteria during minimization (../min.cpp:168)
Ewald initialization ...
  G vector (1/distance) = 0.365055
  estimated absolute RMS force accuracy = 1.94166e-05
  estimated relative force accuracy = 1.34841e-06
  KSpace vectors: actual max1d max3d = 2082 10 4630
                  kxmax kymax kzmax  = 10 10 10
Memory usage per processor = 4.56139 Mbytes
Step Temp E_pair E_mol TotEng Press 
    1079           10   -18273.587            0   -18272.285   -5467.7761 
    1087           10   -18273.593            0   -18272.292   -5487.9297 
Loop time of 0.178758 on 12 procs for 8 steps with 1008 atoms

100.0% CPU use with 12 MPI tasks x no OpenMP threads

Minimization stats:
  Stopping criterion = linesearch alpha is zero
  Energy initial, next-to-last, final = 
        -18273.5869485     -18273.5934694     -18273.5934694
  Force two-norm initial, final = 0.424531 0.0901136
  Force max component initial, final = 0.0394517 0.0089149
  Final line search alpha, max atom move = 9.53674e-07 8.50191e-09
  Iterations, force evaluations = 8 55

MPI task timing breakdown:
Section |  min time  |  avg time  |  max time  |%varavg| %total
---------------------------------------------------------------
Pair    | 0.055777   | 0.063529   | 0.072618   |   1.6 | 35.54
Kspace  | 0.099497   | 0.10157    | 0.10356    |   0.4 | 56.82
Neigh   | 0          | 0          | 0          |   0.0 |  0.00
Comm    | 0.0057611  | 0.012768   | 0.018961   |   3.1 |  7.14
Output  | 0          | 0          | 0          |   0.0 |  0.00
Modify  | 0          | 0          | 0          |   0.0 |  0.00
Other   |            | 0.0008916  |            |       |  0.50

Nlocal:    84 ave 88 max 78 min
Histogram: 1 0 0 1 1 2 1 3 1 2
Nghost:    2602 ave 2624 max 2585 min
Histogram: 1 3 1 1 2 0 1 2 0 1
Neighs:    18624 ave 19582 max 17221 min
Histogram: 1 0 0 2 1 2 1 2 1 2

Total # of neighbors = 223488
Ave neighs/atom = 221.714
Neighbor list builds = 0
Dangerous builds = 0
  triclinic box = (0 0 0) to (23.3007 23.3007 23.3007) with tilt (0 0 0.077661)
WARNING: Resetting reneighboring criteria during minimization (../min.cpp:168)
Ewald initialization ...
  G vector (1/distance) = 0.365055
  estimated absolute RMS force accuracy = 1.94166e-05
  estimated relative force accuracy = 1.34841e-06
  KSpace vectors: actual max1d max3d = 2081 10 4630
                  kxmax kymax kzmax  = 10 10 10
Memory usage per processor = 4.56139 Mbytes
Step Temp E_pair E_mol TotEng Press 
    1087           10   -18273.473            0   -18272.171   -5461.0176 
    1100           10     -18273.5            0   -18272.198   -5516.8013 
    1102           10     -18273.5            0   -18272.198   -5518.4901 
Loop time of 0.223047 on 12 procs for 15 steps with 1008 atoms

100.0% CPU use with 12 MPI tasks x no OpenMP threads

Minimization stats:
  Stopping criterion = linesearch alpha is zero
  Energy initial, next-to-last, final = 
        -18273.4729865     -18273.4996918     -18273.4996918
  Force two-norm initial, final = 0.848942 0.101287
  Force max component initial, final = 0.078876 0.00950951
  Final line search alpha, max atom move = 9.53674e-07 9.06897e-09
  Iterations, force evaluations = 15 69

MPI task timing breakdown:
Section |  min time  |  avg time  |  max time  |%varavg| %total
---------------------------------------------------------------
Pair    | 0.069397   | 0.079307   | 0.090406   |   1.8 | 35.56
Kspace  | 0.12322    | 0.12638    | 0.12847    |   0.4 | 56.66
Neigh   | 0          | 0          | 0          |   0.0 |  0.00
Comm    | 0.0071371  | 0.016127   | 0.023918   |   3.5 |  7.23
Output  | 2.5034e-05 | 2.6266e-05 | 3.6001e-05 |   0.1 |  0.01
Modify  | 0          | 0          | 0          |   0.0 |  0.00
Other   |            | 0.001207   |            |       |  0.54

Nlocal:    84 ave 88 max 78 min
Histogram: 1 0 0 1 1 2 1 3 1 2
Nghost:    2602 ave 2624 max 2585 min
Histogram: 1 3 1 1 2 0 1 2 0 1
Neighs:    18624.5 ave 19583 max 17217 min
Histogram: 1 0 0 2 1 2 2 1 1 2

Total # of neighbors = 223494
Ave neighs/atom = 221.72
Neighbor list builds = 0
Dangerous builds = 0
  triclinic box = (0 0 0) to (23.3007 23.3007 23.3007) with tilt (0 0 0.116503)
WARNING: Resetting reneighboring criteria during minimization (../min.cpp:168)
Ewald initialization ...
  G vector (1/distance) = 0.365055
  estimated absolute RMS force accuracy = 1.94166e-05
  estimated relative force accuracy = 1.34841e-06
  KSpace vectors: actual max1d max3d = 2079 10 4630
                  kxmax kymax kzmax  = 10 10 10
Memory usage per processor = 4.56139 Mbytes
Step Temp E_pair E_mol TotEng Press 
    1102           10   -18273.335            0   -18272.033   -5450.3053 
    1123           10     -18273.4            0   -18272.098   -5547.5021 
Loop time of 0.268663 on 12 procs for 21 steps with 1008 atoms

100.0% CPU use with 12 MPI tasks x no OpenMP threads

Minimization stats:
  Stopping criterion = linesearch alpha is zero
  Energy initial, next-to-last, final = 
        -18273.3345429     -18273.3995537     -18273.3995537
  Force two-norm initial, final = 1.27369 0.111091
  Force max component initial, final = 0.118276 0.0119332
  Final line search alpha, max atom move = 9.53674e-07 1.13804e-08
  Iterations, force evaluations = 21 83

MPI task timing breakdown:
Section |  min time  |  avg time  |  max time  |%varavg| %total
---------------------------------------------------------------
Pair    | 0.0841     | 0.09584    | 0.1098     |   1.9 | 35.67
Kspace  | 0.14869    | 0.15219    | 0.15503    |   0.5 | 56.65
Neigh   | 0          | 0          | 0          |   0.0 |  0.00
Comm    | 0.0087364  | 0.019165   | 0.028389   |   3.8 |  7.13
Output  | 0          | 0          | 0          |   0.0 |  0.00
Modify  | 0          | 0          | 0          |   0.0 |  0.00
Other   |            | 0.001473   |            |       |  0.55

Nlocal:    84 ave 88 max 78 min
Histogram: 1 0 0 1 1 2 1 3 1 2
Nghost:    2602 ave 2624 max 2585 min
Histogram: 1 3 1 1 2 0 1 2 0 1
Neighs:    18623.8 ave 19586 max 17210 min
Histogram: 1 0 0 2 1 2 2 1 1 2

Total # of neighbors = 223485
Ave neighs/atom = 221.711
Neighbor list builds = 0
Dangerous builds = 0
Total wall time: 0:00:19
