ITEM: TIMESTEP
0
ITEM: NUMBER OF ATOMS
1008
ITEM: BOX BOUNDS xy xz yz pp pp pp
0.0 23.3006801605 0.0
0.0 23.3006801605 0.0
0.0 23.3006801605 0.0
ITEM: ATOMS id type x y z
1 1 4.224981307983398 -7.109089374542236 -8.131939888000488 
2 1 0.100768297910690 6.198615550994873 -1.355546593666077 
3 1 -11.007242202758789 5.523545265197754 -3.257772922515869 
4 1 -1.360735416412354 3.174983501434326 -1.461011767387390 
5 1 5.955184459686279 11.641897201538086 -11.529206275939941 
6 1 0.002337077399716 -2.663537263870239 10.458121299743652 
7 1 8.023921966552734 0.131542518734932 -3.360994100570679 
8 1 -4.127415180206299 -1.265697121620178 -4.563249588012695 
9 1 -9.706445693969727 10.326511383056641 -1.592318177223206 
10 1 5.227064609527588 -0.343011111021042 -9.584265708923340 
11 1 9.663929939270020 2.091751575469971 7.049567222595215 
12 1 9.049093246459961 -2.842919349670410 4.622748851776123 
13 1 0.823032557964325 3.350870609283447 9.677266120910645 
14 1 -6.767307758331299 4.385506629943848 -1.259192824363708 
15 1 -5.235313892364502 -3.816851615905762 5.504748821258545 
16 1 2.952293395996094 -9.083217620849609 4.356102943420410 
17 1 -10.363137245178223 3.674026966094971 5.784693241119385 
18 1 -9.613316535949707 2.204178810119629 -2.267301082611084 
19 1 -0.808732211589813 -1.390179395675659 5.054968357086182 
20 1 -10.198801040649414 -2.540998697280884 8.340044975280762 
21 1 10.857498168945312 -5.696175098419189 5.254044055938721 
22 1 0.065528996288776 -7.261197566986084 -3.400342226028442 
23 1 -5.787993907928467 -7.125065326690674 7.367792129516602 
24 1 7.798075675964355 4.784675598144531 8.937394142150879 
25 1 7.153181076049805 -2.628115892410278 9.463434219360352 
26 1 -5.434563159942627 6.715467453002930 6.990204811096191 
27 1 8.089580535888672 -10.807188987731934 2.364227771759033 
28 1 0.356618881225586 10.369238853454590 6.161945819854736 
29 1 -3.064254760742188 -11.055027961730957 -4.567458629608154 
30 1 -6.143808841705322 3.074769020080566 -7.421289920806885 
31 1 -1.448425412178040 5.208434104919434 -7.486948013305664 
32 1 -11.467738151550293 6.983417034149170 6.167194366455078 
33 1 4.612915515899658 6.058331966400146 1.193214893341064 
34 1 2.144730091094971 3.345685005187988 0.023134082555771 
35 1 0.417771518230438 -1.561586141586304 -5.535703182220459 
36 1 -10.437077522277832 -11.340019226074219 10.190529823303223 
37 1 11.554203033447266 -0.614261329174042 5.594169139862061 
38 1 -4.590176105499268 1.353580236434937 -1.574494123458862 
39 1 4.471673965454102 -4.121487140655518 -6.184512138366699 
40 1 -7.212800979614258 -4.594247341156006 2.543943405151367 
41 1 -3.222619771957397 -7.002377986907959 -5.272047042846680 
42 1 3.190351247787476 -10.332251548767090 -9.969693183898926 
43 1 -8.517744064331055 5.403831005096436 -9.079600334167480 
44 1 -2.327851772308350 -8.980194091796875 -1.717491984367371 
45 1 -8.281274795532227 10.831514358520508 7.522805213928223 
46 1 0.729415714740753 9.232821464538574 9.614019393920898 
47 1 7.323886871337891 -9.057306289672852 -4.476579189300537 
48 1 4.817597389221191 -8.881402015686035 8.731695175170898 
49 1 3.633005380630493 11.478393554687500 -5.763914585113525 
50 1 -10.747912406921387 -5.615024089813232 2.232101440429688 
51 1 -5.892018318176270 10.365858078002930 5.355666160583496 
52 1 -11.015019416809082 -0.619749069213867 -0.879262983798981 
53 1 -1.892048478126526 1.023110628128052 1.017587423324585 
54 1 -1.386754870414734 -0.616951882839203 -2.240158796310425 
55 1 3.698762655258179 -4.302607536315918 9.782597541809082 
56 1 2.997572898864746 8.243154525756836 -4.178430080413818 
57 1 6.932666301727295 -5.785829067230225 -10.541110038757324 
58 1 3.754555225372314 5.429591178894043 -1.939399719238281 
59 1 3.797260284423828 9.312413215637207 -8.998173713684082 
60 1 0.592000186443329 5.408883094787598 2.869859695434570 
61 1 2.373341083526611 0.967218577861786 -7.488406658172607 
62 1 8.525625228881836 7.549651145935059 -6.031843662261963 
63 1 -1.738460421562195 -5.489708900451660 -0.445198118686676 
64 1 -5.026541233062744 -6.450812339782715 0.608857989311218 
65 1 8.824787139892578 6.081634044647217 -2.740546464920044 
66 1 0.316733151674271 -3.255422115325928 -8.945800781250000 
67 1 5.440641880035400 -3.818917512893677 1.890336513519287 
68 1 9.566040039062500 7.327733993530273 10.848924636840820 
69 1 -11.492568016052246 -9.676954269409180 -2.339945793151855 
70 1 -6.859308242797852 -3.002706527709961 -6.490428924560547 
71 1 -1.038251757621765 9.610462188720703 -6.176110267639160 
72 1 3.815686464309692 1.118402123451233 2.551456689834595 
73 1 -7.521047592163086 0.364025473594666 -4.898253917694092 
74 1 -3.573379516601562 4.571334362030029 -10.429685592651367 
75 1 -10.589419364929199 -6.076336383819580 10.894908905029297 
76 1 3.629946947097778 10.580254554748535 3.752275943756104 
77 1 3.321043491363525 10.120670318603516 -1.485431790351868 
78 1 10.784467697143555 11.210171699523926 0.248368918895721 
79 1 4.023067474365234 -9.769701957702637 -2.886032581329346 
80 1 10.066391944885254 0.632275342941284 -9.582729339599609 
81 1 -10.121424674987793 1.040218472480774 8.550213813781738 
82 1 1.769945144653320 -6.450108528137207 0.037073712795973 
83 1 -2.516650676727295 9.483422279357910 0.198760330677032 
84 1 0.987263202667236 -0.104853644967079 -10.636958122253418 
85 1 -7.890849590301514 -3.060148000717163 10.879485130310059 
86 1 -8.327289581298828 9.484738349914551 1.687805891036987 
87 1 7.773654460906982 8.256389617919922 7.964306831359863 
88 1 -2.870229482650757 1.783775687217712 -6.433769702911377 
89 1 -2.747709274291992 5.363975524902344 4.729376792907715 
90 1 9.722118377685547 -4.282932758331299 -8.553239822387695 
91 1 3.375943660736084 11.618810653686523 6.970159053802490 
92 1 3.604738950729370 1.587573766708374 -3.075017213821411 
93 1 -7.079477310180664 8.102797508239746 9.987398147583008 
94 1 -8.368954658508301 7.700208663940430 5.003348350524902 
95 1 -8.583611488342285 10.215217590332031 -10.515439987182617 
96 1 5.852752208709717 4.721190929412842 -9.681383132934570 
97 1 -1.981677532196045 -9.223052024841309 9.835351943969727 
98 1 10.592577934265137 -7.411389827728271 0.001960040070117 
99 1 0.322334140539169 -6.415954113006592 10.329889297485352 
100 1 -7.076599121093750 8.092746734619141 -2.002739429473877 
101 1 4.041436195373535 -1.000436425209045 5.630939960479736 
102 1 6.573592185974121 2.035087347030640 11.003638267517090 
103 1 0.464281111955643 -9.813800811767578 7.320343494415283 
104 1 -10.354413032531738 1.031151652336121 -11.119192123413086 
105 1 7.296737670898438 11.119514465332031 -5.593753337860107 
106 1 -9.667446136474609 -1.903088688850403 -4.159114837646484 
107 1 -5.324133396148682 -4.895803451538086 10.144046783447266 
108 1 -1.660063624382019 6.242907047271729 -4.396575927734375 
109 1 -10.482440948486328 8.127793312072754 -8.136492729187012 
110 1 -1.227113604545593 6.405436515808105 10.736859321594238 
111 1 -1.737514734268188 7.803191184997559 -9.415548324584961 
112 1 7.535227298736572 -7.531656742095947 3.965630292892456 
113 1 11.167140007019043 0.528751432895660 -4.734912872314453 
114 1 11.319705009460449 8.917256355285645 -4.382058143615723 
115 1 6.742303848266602 3.539500713348389 -3.186795473098755 
116 1 -7.949699878692627 -7.707918643951416 4.264895439147949 
117 1 -2.397695302963257 -3.741482973098755 7.917570590972900 
118 1 -2.911373138427734 8.967430114746094 6.357977867126465 
119 1 3.627312183380127 -7.023605823516846 -11.586793899536133 
120 1 11.242642402648926 9.660182952880859 8.627873420715332 
121 1 9.826885223388672 4.095458984375000 -5.664139747619629 
122 1 -6.627403736114502 11.279935836791992 -3.951007127761841 
123 1 11.457926750183105 4.288941860198975 8.941708564758301 
124 1 7.542404651641846 -11.454321861267090 8.676632881164551 
125 1 -7.265367031097412 0.611669659614563 11.155232429504395 
126 1 -9.853578567504883 1.476650953292847 3.084587574005127 
127 1 -10.731667518615723 2.765633344650269 -7.615041255950928 
128 1 -2.950570821762085 0.037957053631544 7.679240226745605 
129 1 2.252110242843628 -6.548131465911865 7.005068302154541 
130 1 -3.971506118774414 -4.368462085723877 -7.799204826354980 
131 1 -3.644693851470947 6.331287860870361 -1.469394803047180 
132 1 4.888421535491943 -7.753444671630859 1.313875913619995 
133 1 -5.474160194396973 7.586383819580078 -9.678494453430176 
134 1 -8.027116775512695 0.358734577894211 -8.418719291687012 
135 1 7.263197898864746 9.540995597839355 -8.959536552429199 
136 1 -8.287080764770508 -8.809738159179688 8.904730796813965 
137 1 -1.593001723289490 -4.070434093475342 -3.672811269760132 
138 1 -7.342593193054199 -0.809619903564453 1.676874756813049 
139 1 -5.022371768951416 -10.753008842468262 8.248665809631348 
140 1 -4.502091884613037 3.795235395431519 -3.791271448135376 
141 1 8.533722877502441 -9.104063987731934 -10.597433090209961 
142 1 1.568193793296814 8.405524253845215 1.319828271865845 
143 1 0.338774889707565 1.941146612167358 3.946704626083374 
144 1 8.745058059692383 11.003421783447266 -2.359135150909424 
145 1 7.351641178131104 -9.140102386474609 -0.864182591438293 
146 1 -11.344780921936035 -2.632066488265991 -11.311739921569824 
147 1 -1.898755431175232 1.275403261184692 11.013641357421875 
148 1 5.686359405517578 0.880834460258484 -0.514022886753082 
149 1 -4.748365879058838 -4.769646167755127 -2.717011928558350 
150 1 6.513712882995605 -2.424040555953979 -1.456297636032104 
151 1 9.592504501342773 10.866783142089844 -11.482516288757324 
152 1 1.107932329177856 -3.000120639801025 -1.221785068511963 
153 1 -1.375041246414185 -2.672253370285034 1.876586437225342 
154 1 5.128303050994873 6.937447547912598 -6.807032108306885 
155 1 9.332594871520996 -1.697552919387817 0.864285945892334 
156 1 -6.472372055053711 2.868537664413452 1.781556963920593 
157 1 5.937614440917969 1.912578582763672 7.385689258575439 
158 1 9.696213722229004 -0.098171249032021 10.237196922302246 
159 1 -7.525787353515625 6.015083312988281 1.953686952590942 
160 1 -3.642678499221802 4.087503910064697 9.160682678222656 
161 1 -6.729695320129395 0.693456649780273 4.984228134155273 
162 1 -3.483765840530396 9.372910499572754 9.873023033142090 
163 1 11.606895446777344 -7.350813865661621 -9.222785949707031 
164 1 -2.310687541961670 -4.835652351379395 -11.067217826843262 
165 1 7.692230224609375 4.016288280487061 0.237849518656731 
166 1 -7.628095626831055 10.676000595092773 -7.089427471160889 
167 1 -5.600010871887207 -8.510162353515625 -3.131295204162598 
168 1 8.245160102844238 -2.403883934020996 -10.329166412353516 
169 1 1.165943264961243 -8.857372283935547 -6.857162475585938 
170 1 -0.217710733413696 9.699247360229492 -2.592895269393921 
171 1 6.975171089172363 -5.839253902435303 8.954519271850586 
172 1 -8.654588699340820 7.442715644836426 -5.495449066162109 
173 1 3.482397317886353 -2.275283098220825 -3.448182344436646 
174 1 2.993643999099731 -5.773201465606689 3.642666101455688 
175 1 -11.313099861145020 -9.391952514648438 6.993468284606934 
176 1 -5.005634307861328 6.371827602386475 -6.203088283538818 
177 1 8.980043411254883 -4.974952220916748 1.846163630485535 
178 1 4.961418628692627 4.017220020294189 4.436805725097656 
179 1 6.141786575317383 -10.192223548889160 -7.927456855773926 
180 1 -11.148778915405273 4.638495445251465 -11.034255981445312 
181 1 -11.003889083862305 -1.893969297409058 -7.770483016967773 
182 1 2.307378530502319 -9.967380523681641 0.251189857721329 
183 1 4.050896644592285 8.127053260803223 8.124157905578613 
184 1 -3.803316116333008 -8.337217330932617 -10.302412033081055 
185 1 -7.318731784820557 -7.057734012603760 -10.983852386474609 
186 1 0.349635571241379 1.639124631881714 -4.490447521209717 
187 1 -5.427974700927734 -1.892237663269043 -9.986860275268555 
188 1 9.408614158630371 8.233389854431152 0.290169805288315 
189 1 9.496123313903809 6.176952362060547 -8.827889442443848 
190 1 2.454071521759033 -10.602117538452148 10.227549552917480 
191 1 -6.598112106323242 4.396834850311279 11.230033874511719 
192 1 10.483676910400391 10.598852157592773 -7.249130725860596 
193 1 -0.527432918548584 11.566384315490723 2.043316125869751 
194 1 2.311005830764771 7.101839065551758 -11.094547271728516 
195 1 -8.961594581604004 -8.374543190002441 -4.421911716461182 
196 1 5.690894126892090 -4.556014537811279 5.564843177795410 
197 1 -8.451068878173828 -4.862483978271484 -3.404129505157471 
198 1 7.519248962402344 2.064903736114502 -7.950711250305176 
199 1 8.883136749267578 -1.279299139976501 -6.673600673675537 
200 1 10.793245315551758 -3.997260570526123 -1.260039687156677 
201 1 -9.658514976501465 -11.014767646789551 4.412992954254150 
202 1 3.946737289428711 -3.776601076126099 -9.867098808288574 
203 1 8.380547523498535 2.976865530014038 3.744348526000977 
204 1 -8.476087570190430 -7.017799377441406 -0.321136623620987 
205 1 -6.882146835327148 2.627886533737183 8.118874549865723 
206 1 10.339590072631836 5.799766063690186 2.123725175857544 
207 1 -6.475828647613525 -6.487418651580811 -7.421064376831055 
208 1 -2.192889451980591 -10.408184051513672 -8.024991035461426 
209 1 -0.060775291174650 -8.134232521057129 2.436929941177368 
210 1 5.333071231842041 -0.468551784753799 -5.941518783569336 
211 1 5.874817371368408 7.853444099426270 11.380625724792480 
212 1 -4.095866203308105 -1.027166247367859 3.283036947250366 
213 1 2.715900182723999 5.930840015411377 6.029793739318848 
214 1 6.178497791290283 -10.351035118103027 5.468225479125977 
215 1 -1.524967312812805 11.020062446594238 -11.103385925292969 
216 1 6.327676296234131 9.305153846740723 1.797062873840332 
217 1 -2.409392356872559 -1.105049967765808 -7.856911659240723 
218 1 4.867283821105957 3.232832908630371 -6.241121768951416 
219 1 7.150496482849121 -6.164144515991211 -6.696024417877197 
220 1 -6.431842803955078 -1.167698144912720 8.038673400878906 
221 1 -0.957556784152985 8.268345832824707 3.475598335266113 
222 1 -2.050342082977295 -7.287254333496094 6.703634262084961 
223 2 -5.306344985961914 -1.125725984573364 1.622274518013000 
224 2 -9.108192443847656 8.461137771606445 -1.397328734397888 
225 2 10.430629730224609 9.564041137695312 4.608374595642090 
226 2 6.423893451690674 2.631428003311157 -0.306292206048965 
227 2 -4.342911243438721 -8.068009376525879 1.188424468040466 
228 2 9.203520774841309 -2.822281122207642 -5.405402183532715 
229 2 9.220888137817383 -8.844915390014648 -5.221295356750488 
230 2 -8.096474647521973 7.666336059570312 0.985353589057922 
231 2 -6.132139682769775 9.526147842407227 -3.195803642272949 
232 2 11.073944091796875 10.964344978332520 10.170406341552734 
233 2 -5.780357837677002 2.651983261108398 -0.573596596717834 
234 2 6.613265037536621 -10.762505531311035 3.658949136734009 
235 2 7.272992610931396 -4.358136177062988 -2.214280366897583 
236 2 10.684610366821289 -5.923571109771729 -1.269798755645752 
237 2 9.125311851501465 10.076714515686035 -8.526453971862793 
238 2 -4.957416534423828 -10.241092681884766 -10.915206909179688 
239 2 11.020400047302246 -3.566187858581543 -7.327112197875977 
240 2 -3.533827066421509 8.046649932861328 -9.907945632934570 
241 2 7.488995552062988 7.612976074218750 10.077667236328125 
242 2 6.033071041107178 3.473087787628174 -7.969679832458496 
243 2 -9.492175102233887 -11.349234580993652 -9.660113334655762 
244 2 -2.722709655761719 8.563988685607910 4.355754852294922 
245 2 -1.135966062545776 9.509368896484375 -10.012104988098145 
246 2 4.426239013671875 -10.532169342041016 -6.930511474609375 
247 2 6.390087127685547 -5.975151538848877 -8.580307006835938 
248 2 9.341613769531250 10.027306556701660 -0.642726242542267 
249 2 -6.240394592285156 -9.039858818054199 8.105654716491699 
250 2 -6.901405811309814 -10.925446510314941 -7.978701114654541 
251 2 -3.931207656860352 10.248625755310059 -1.143770694732666 
252 2 -11.320058822631836 -10.095881462097168 11.460545539855957 
253 2 2.150468111038208 4.155935764312744 8.351119995117188 
254 2 -9.274415016174316 1.761193513870239 -8.252899169921875 
255 2 -11.562367439270020 7.415596008300781 -3.242177724838257 
256 2 -6.817555904388428 10.621498107910156 1.842751979827881 
257 2 10.911741256713867 0.654788076877594 -0.594300031661987 
258 2 10.426986694335938 2.586895465850830 -4.391549110412598 
259 2 -11.568900108337402 8.574898719787598 7.180266380310059 
260 2 11.211627006530762 10.795428276062012 -10.411680221557617 
261 2 4.643855094909668 -3.623261213302612 -8.043078422546387 
262 2 4.638227939605713 5.206137180328369 2.898572921752930 
263 2 -0.416388720273972 -8.678837776184082 -2.184903144836426 
264 2 -4.041364192962646 -5.092118740081787 11.528542518615723 
265 2 -3.653514146804810 0.576326549053192 -0.000146043006680 
266 2 -3.464678287506104 -3.631072282791138 6.402416229248047 
267 2 -2.462588071823120 -10.554610252380371 -2.797012805938721 
268 2 -4.369065284729004 8.125077247619629 -5.196040630340576 
269 2 9.289336204528809 7.298495292663574 -1.353981375694275 
270 2 -9.682564735412598 10.670339584350586 11.292304992675781 
271 2 -7.809217453002930 -8.928531646728516 -10.236505508422852 
272 2 3.449118852615356 -4.685555934906006 -11.606541633605957 
273 2 -8.762534141540527 -5.995847702026367 -1.867866277694702 
274 2 10.268803596496582 -3.097525119781494 -10.201512336730957 
275 2 -9.113363265991211 -0.114017292857170 2.141994476318359 
276 2 5.441522598266602 -1.032719612121582 -0.642828166484833 
277 2 7.814060688018799 4.520807266235352 -1.721843481063843 
278 2 -3.441402912139893 -0.111940696835518 -6.025800228118896 
279 2 7.348230838775635 8.445834159851074 0.220693424344063 
280 2 -4.712783336639404 -10.899188041687012 1.423222064971924 
281 2 2.542188644409180 -9.664748191833496 -1.591203331947327 
282 2 -10.241559028625488 -3.811092615127563 -3.747642755508423 
283 2 -9.759974479675293 -8.293643951416016 7.553442001342773 
284 2 -8.476941108703613 1.299677610397339 4.421525478363037 
285 2 9.020887374877930 2.288013458251953 -9.622474670410156 
286 2 7.973189830780029 -2.751415729522705 11.183418273925781 
287 2 -2.248745679855347 -1.629945397377014 3.652698040008545 
288 2 9.290668487548828 2.678525209426880 -0.230469048023224 
289 2 -6.649468421936035 6.371891021728516 10.909127235412598 
290 2 -7.525233268737793 9.105659484863281 6.142772197723389 
291 2 11.165871620178223 7.180583953857422 -8.563173294067383 
292 2 2.006280183792114 6.054384708404541 -1.420830488204956 
293 2 -7.973762512207031 -3.421227216720581 -4.833632946014404 
294 2 -3.190806388854980 0.706366837024689 2.570612907409668 
295 2 -10.333664894104004 -6.131546497344971 -8.419944763183594 
296 2 -3.981349229812622 6.411628246307373 5.752463340759277 
297 2 3.598110198974609 -5.828101158142090 -9.326145172119141 
298 2 -1.061605691909790 11.233999252319336 -7.482801437377930 
299 2 -8.751516342163086 -10.270479202270508 -4.257045745849609 
300 2 -1.672536373138428 7.460058689117432 6.451146125793457 
301 2 1.459675550460815 -11.092160224914551 -6.352555751800537 
302 2 -8.271894454956055 1.801709532737732 -3.707362651824951 
303 2 -7.428999423980713 -6.082872390747070 -9.245384216308594 
304 2 -6.800671100616455 -3.786681890487671 9.520843505859375 
305 2 -2.040305852890015 0.885630786418915 -8.083982467651367 
306 2 -2.111796855926514 -9.628606796264648 0.026038667187095 
307 2 -2.510094404220581 3.838739871978760 3.463978052139282 
308 2 2.797473430633545 -0.350914180278778 1.645475387573242 
309 2 2.232672214508057 -3.870084762573242 -2.731131792068481 
310 2 -9.258159637451172 -4.023722171783447 7.129604816436768 
311 2 7.534686088562012 -11.499361038208008 6.374893665313721 
312 2 -5.164531230926514 -2.321409463882446 -5.856941223144531 
313 2 5.927339553833008 7.959366798400879 7.214566707611084 
314 2 1.446090459823608 -6.174422264099121 -4.346160888671875 
315 2 4.029253959655762 3.939711570739746 -9.843093872070312 
316 2 0.094189651310444 9.057086944580078 4.829293251037598 
317 2 0.982190191745758 -11.082374572753906 1.085234403610229 
318 2 -8.069523811340332 -3.548131704330444 -7.814130783081055 
319 2 6.061297893524170 -10.864937782287598 9.792022705078125 
320 2 -11.119464874267578 -11.077449798583984 0.893761396408081 
321 2 -3.388279914855957 -4.836733818054199 -4.267101287841797 
322 2 1.656587839126587 7.420084953308105 -5.398729801177979 
323 2 -8.656460762023926 2.048736095428467 7.880374908447266 
324 2 10.237117767333984 -8.714307785034180 -9.351779937744141 
325 2 -4.358110427856445 -10.232100486755371 6.416179656982422 
326 2 11.183566093444824 -0.846423268318176 -9.050982475280762 
327 2 -10.691710472106934 -4.013362884521484 -0.809665501117706 
328 2 -2.112205266952515 2.985016822814941 0.412600994110107 
329 2 8.492484092712402 11.432577133178711 10.312644958496094 
330 2 7.252176761627197 10.021589279174805 8.435222625732422 
331 2 9.906542778015137 6.842548847198486 5.592976570129395 
332 2 -7.076886177062988 -3.906327962875366 4.453224182128906 
333 2 -2.323392152786255 -8.040699958801270 -6.741281509399414 
334 2 -6.559823513031006 1.645918846130371 -8.851954460144043 
335 2 3.016358852386475 6.134984016418457 -3.675480604171753 
336 2 5.952373027801514 -3.671257019042969 -0.042970851063728 
337 2 7.836537361145020 -10.938326835632324 -1.337751388549805 
338 2 -1.371588230133057 -5.812920570373535 10.855294227600098 
339 2 -9.609807014465332 0.735447406768799 -1.042808055877686 
340 2 -9.035548210144043 -6.349566936492920 -4.461110591888428 
341 2 7.260646343231201 9.800905227661133 -2.510607242584229 
342 2 7.814217090606689 3.648190259933472 10.525732040405273 
343 2 -11.118751525878906 5.337466239929199 5.302256584167480 
344 2 8.381928443908691 7.681828975677490 -8.138568878173828 
345 2 -5.021548271179199 4.743452072143555 -7.316515445709229 
346 2 -11.176789283752441 2.977323293685913 -1.149531722068787 
347 2 4.936186790466309 -2.721738815307617 5.434276580810547 
348 2 10.445926666259766 4.833299160003662 -2.424503087997437 
349 2 4.809430599212646 7.853110790252686 9.815443038940430 
350 2 9.516991615295410 -10.991785049438477 1.127570152282715 
351 2 -4.987591743469238 -7.447519302368164 -6.257877349853516 
352 2 4.923399925231934 3.121637821197510 10.920793533325195 
353 2 -6.085200309753418 -11.307837486267090 4.273662090301514 
354 2 1.017650842666626 -5.181796550750732 6.244520187377930 
355 2 3.622773170471191 -10.643785476684570 8.657461166381836 
356 2 2.383348464965820 -5.881272792816162 1.785074591636658 
357 2 3.280858516693115 -2.549141645431519 10.174951553344727 
358 2 1.944553494453430 -1.943551301956177 -4.511256217956543 
359 2 -4.273729324340820 -8.880675315856934 -1.829161047935486 
360 2 9.885315895080566 2.132276535034180 3.004796266555786 
361 2 -11.571047782897949 -5.972370147705078 7.074286460876465 
362 2 3.298406124114990 -11.639124870300293 -0.142547130584717 
363 2 8.791362762451172 -2.395969152450562 -8.299229621887207 
364 2 -8.674646377563477 -3.714942693710327 -10.875680923461914 
365 2 -9.225965499877930 6.818109035491943 6.652184486389160 
366 2 -4.532462120056152 11.153935432434082 -3.969544172286987 
367 2 -7.688324928283691 4.515816688537598 -10.580976486206055 
368 2 -0.717933475971222 -5.608871459960938 -2.332635879516602 
369 2 0.143728524446487 -7.607457160949707 -9.436285972595215 
370 2 -2.316976547241211 8.755431175231934 -7.593075752258301 
371 2 -8.244881629943848 -6.023916721343994 -6.806350708007812 
372 2 -4.044558048248291 -7.639764785766602 3.984447717666626 
373 2 -2.594245433807373 -1.826023340225220 8.458844184875488 
374 2 11.223150253295898 5.186725139617920 -4.825609207153320 
375 2 -1.839502096176147 -3.207306861877441 10.830958366394043 
376 2 -0.215629607439041 -6.425119876861572 0.430193692445755 
377 2 4.513226985931396 -2.240166187286377 -5.433051586151123 
378 2 10.196779251098633 -3.820989847183228 -3.086646795272827 
379 2 6.910103797912598 -9.970381736755371 -11.193217277526855 
380 2 -11.563688278198242 -8.199301719665527 5.528448581695557 
381 2 -6.785533905029297 4.521104812622070 3.082832336425781 
382 2 10.506791114807129 9.685353279113770 1.580559492111206 
383 2 -5.410887241363525 -0.393801391124725 -1.483958959579468 
384 2 -0.382621347904205 -8.249841690063477 10.850183486938477 
385 2 -9.910058021545410 8.646257400512695 -9.946298599243164 
386 2 -7.289819717407227 4.323331356048584 -3.051185846328735 
387 2 -5.286377906799316 3.001421451568604 8.927898406982422 
388 2 7.065326213836670 6.908202171325684 -2.708536624908447 
389 2 -7.978498935699463 7.864221096038818 -3.744672775268555 
390 2 4.160524845123291 10.076662063598633 7.708927631378174 
391 2 -10.840509414672852 -0.655778169631958 8.960090637207031 
392 2 1.862598657608032 5.417333602905273 -7.039559841156006 
393 2 -7.478815555572510 -1.208541750907898 -6.212584495544434 
394 2 4.759625911712646 -0.058256875723600 3.935096025466919 
395 2 -0.977888226509094 5.289171218872070 1.589342355728149 
396 2 10.864905357360840 -1.939574360847473 4.236311435699463 
397 2 -6.560844421386719 3.437523841857910 -5.552772998809814 
398 2 -1.117109417915344 -1.060232043266296 -6.470160961151123 
399 2 -3.628218889236450 -9.728225708007812 9.059411048889160 
400 2 -0.508851349353790 6.965387821197510 -8.034904479980469 
401 2 9.777255058288574 -4.550104618072510 3.729203224182129 
402 2 -11.009420394897461 -4.532894611358643 4.931375026702881 
403 2 -6.515655994415283 -5.067255496978760 -3.367546319961548 
404 2 3.658821821212769 -3.220479965209961 1.745496988296509 
405 2 -8.236145973205566 -4.969477176666260 0.630821406841278 
406 2 2.961613416671753 0.640875041484833 6.330388545989990 
407 2 5.618392944335938 -0.025385404005647 6.636044979095459 
408 2 -10.206279754638672 -6.617369651794434 0.622725307941437 
409 2 5.189789772033691 -5.806108474731445 1.164693713188171 
410 2 5.705164909362793 -4.215950489044189 -10.587422370910645 
411 2 1.228019833564758 -2.171456098556519 0.614563047885895 
412 2 -0.990817129611969 -9.898787498474121 2.398050308227539 
413 2 -4.994111537933350 7.607834815979004 -7.742782115936279 
414 2 -7.586457252502441 -1.469543933868408 -0.238331988453865 
415 2 3.797383785247803 -5.342242240905762 5.839825153350830 
416 2 9.469681739807129 -1.772454857826233 6.324159145355225 
417 2 8.309596061706543 -4.212357044219971 8.925683021545410 
418 2 -6.299995899200439 -10.868545532226562 -5.522517204284668 
419 2 -1.293630480766296 -0.692030787467957 10.848990440368652 
420 2 3.484061956405640 7.733432292938232 -7.671093940734863 
421 2 -10.651944160461426 0.701130926609039 6.717682838439941 
422 2 9.267078399658203 7.242381095886230 -4.275183677673340 
423 2 -1.666184544563293 4.713976383209229 6.146498680114746 
424 2 4.116142272949219 -9.671688079833984 1.192337036132812 
425 2 -0.047288853675127 -10.988826751708984 5.832672119140625 
426 2 -6.814107894897461 -0.554139852523804 3.536407232284546 
427 2 8.037605285644531 -2.057011842727661 -0.398900568485260 
428 2 -2.587023258209229 -1.625118970870972 -1.206828355789185 
429 2 3.907124280929565 2.672694921493530 -4.627081394195557 
430 2 1.900329947471619 -10.008344650268555 -8.572187423706055 
431 2 -5.241462230682373 8.640455245971680 9.893580436706543 
432 2 -11.116923332214355 -9.965672492980957 3.515160083770752 
433 2 -10.344271659851074 8.136135101318359 4.865840911865234 
434 2 6.104091167449951 -5.272829055786133 7.339631080627441 
435 2 -1.679300069808960 -6.274706840515137 5.044338226318359 
436 2 9.891192436218262 0.402407854795456 -2.935178041458130 
437 2 -11.111165046691895 -3.721055746078491 2.046069860458374 
438 2 -4.781802177429199 10.396574020385742 -8.503419876098633 
439 2 -3.429800033569336 -10.223577499389648 3.781493902206421 
440 2 -2.077459812164307 1.919100761413574 5.125764369964600 
441 2 -6.822296142578125 -10.847955703735352 -0.030957615002990 
442 2 1.392422914505005 8.330670356750488 11.186418533325195 
443 2 -0.443320542573929 -9.611823081970215 -7.613265991210938 
444 2 -6.789270401000977 4.569806098937988 0.678574085235596 
445 2 -7.276575088500977 1.249130725860596 -6.566998958587646 
446 2 7.402633666992188 1.406628608703613 3.965963602066040 
447 2 -6.852713108062744 0.715482234954834 9.161952018737793 
448 2 0.255389302968979 3.816534280776978 3.808296918869019 
449 2 9.373944282531738 5.828688621520996 -6.795684814453125 
450 2 11.559651374816895 -6.552777290344238 3.616503477096558 
451 2 0.651305317878723 2.361276626586914 5.908237934112549 
452 2 2.637892246246338 -1.515235543251038 4.352064132690430 
453 2 2.656140089035034 -1.754566669464111 -1.618767142295837 
454 2 -4.502355098724365 3.152166128158569 1.953135490417480 
455 2 10.194167137145996 0.706271767616272 5.825781822204590 
456 2 -6.285566329956055 11.281155586242676 7.113779544830322 
457 2 4.070950031280518 8.050706863403320 -10.694264411926270 
458 2 -3.168257236480713 0.387683957815170 9.635886192321777 
459 2 5.973409652709961 5.211439132690430 9.310324668884277 
460 2 -1.922198176383972 -5.527211666107178 7.566191673278809 
461 2 6.957883834838867 8.311308860778809 -10.398213386535645 
462 2 11.312879562377930 5.901772022247314 7.821717262268066 
463 2 -1.122793316841125 6.334221363067627 4.035611629486084 
464 2 0.465883076190948 -1.258371353149414 6.627257823944092 
465 2 5.460171222686768 2.032054185867310 -2.583782196044922 
466 2 9.780288696289062 -4.535251617431641 6.305160045623779 
467 2 -4.708655357360840 4.417916297912598 10.937181472778320 
468 2 9.641778945922852 -10.709734916687012 -10.682523727416992 
469 2 -8.808941841125488 -9.314569473266602 4.969178676605225 
470 2 -8.864344596862793 -8.930198669433594 0.126439303159714 
471 2 2.547886371612549 -7.223463535308838 5.061418056488037 
472 2 -0.519548654556274 0.915525138378143 -10.399426460266113 
473 2 6.732103347778320 -7.429039955139160 -5.269045352935791 
474 2 -2.509791851043701 -6.658328056335449 -9.830308914184570 
475 2 -0.863329768180847 9.882031440734863 -0.766449034214020 