LAMMPS (7 Dec 2015)
# Tantala heating to find melting temp. and glass transition temp.
# Intervals of 400 K (starting at 0 K) to be merged with the date from the even directory (also has intervals of 400 K starting at 200 K)
# Including rdf compute and initial velocity seed
# I've written a loop that makes melting/cooling simulation codes less tedious (In test directory input file)

# Initialization

units		metal
atom_style	charge
dimension	3
boundary	p p p

# Optional

neighbor	1.0 nsq
neigh_modify	every 1 delay 1 check yes

# Defining atomic system (896 atoms)

read_data	min1.dat
  triclinic box = (0 0 0) to (23.3007 23.3007 23.3007) with tilt (0 0 0)
  2 by 2 by 3 MPI processor grid
  reading atoms ...
  1008 atoms

# Potential

kspace_style	ewald 1.0e-6
#For low-temperature simulations, comment out the following line
#pair_style	hybrid/overlay lj246/cut 10 buck/coul/long 10 morse 10
#For low-temperature simulations, un-comment the following line
pair_style      hybrid/overlay buck/coul/long 10 morse 10

pair_coeff      1 2 buck/coul/long 100067.01 0.1319 6.05
pair_coeff      2 2 buck/coul/long 1388.773 0.3623188 175.0000
pair_coeff      1 1 buck/coul/long 0.00000000 1.0000000 0.000000
pair_coeff	2 3 buck/coul/long 17243.00 0.2265 128.35
pair_coeff      1 3 buck/coul/long 0.00000000 1.0000000 0.000000
pair_coeff      3 3 buck/coul/long 0.00000000 1.0000000 0.000000
pair_coeff 	1 2 morse 	   0.3789 1.6254 2.5445
#Remove these lines if running low-temperature simulation
#pair_coeff      1 2 lj246/cut	   0.01 0.51
#pair_coeff	2 2 lj246/cut 	   0.00035653 1.9000

# MD parameters

#1 fs timestep
timestep 0.001
thermo		50

fix		1 all nvt temp 10 10 0.1
velocity	all create 10 26684

load_tls min1.dump 1 0
  triclinic box = (0 0 0) to (23.3007 23.3007 23.3007) with tilt (0 0 0)
  1008 atoms before read
  1008 atoms in snapshot
  0 atoms purged
  1008 atoms replaced
  0 atoms trimmed
  0 atoms added
  1008 atoms after read
load_tls min2.dump 2 0
  triclinic box = (0 0 0) to (23.3007 23.3007 23.3007) with tilt (0 0 0)
  1008 atoms before read
  1008 atoms in snapshot
  0 atoms purged
  1008 atoms replaced
  0 atoms trimmed
  0 atoms added
  1008 atoms after read
couple_elastic 0.005 linear
  triclinic box = (0.0582517 0 0) to (23.2424 23.3007 23.3007) with tilt (0 0 0)
WARNING: Resetting reneighboring criteria during minimization (../min.cpp:168)
Ewald initialization ...
  G vector (1/distance) = 0.365089
  estimated absolute RMS force accuracy = 1.92191e-05
  estimated relative force accuracy = 1.33469e-06
  KSpace vectors: actual max1d max3d = 2088 10 4630
                  kxmax kymax kzmax  = 10 10 10
Neighbor list info ...
  2 neighbor list requests
  update every 1 steps, delay 0 steps, check yes
  max neighbors/atom: 2000, page size: 100000
  master list distance cutoff = 11
  ghost atom cutoff = 11
Memory usage per processor = 4.56171 Mbytes
Step Temp E_pair E_mol TotEng Press 
       0           10   -18273.096            0   -18271.795    6335.1143 
      20           10   -18273.252            0    -18271.95    2534.2548 
Loop time of 0.248793 on 12 procs for 20 steps with 1008 atoms

99.5% CPU use with 12 MPI tasks x no OpenMP threads

Minimization stats:
  Stopping criterion = linesearch alpha is zero
  Energy initial, next-to-last, final = 
        -18273.0963039     -18273.2518262     -18273.2518262
  Force two-norm initial, final = 1.83275 0.144564
  Force max component initial, final = 0.165287 0.0126382
  Final line search alpha, max atom move = 4.76837e-07 6.02635e-09
  Iterations, force evaluations = 20 81

MPI task timing breakdown:
Section |  min time  |  avg time  |  max time  |%varavg| %total
---------------------------------------------------------------
Pair    | 0.083121   | 0.092039   | 0.097296   |   1.3 | 36.99
Kspace  | 0.13408    | 0.13796    | 0.14058    |   0.5 | 55.45
Neigh   | 0          | 0          | 0          |   0.0 |  0.00
Comm    | 0.01239    | 0.015815   | 0.022154   |   2.2 |  6.36
Output  | 0          | 0          | 0          |   0.0 |  0.00
Modify  | 0          | 0          | 0          |   0.0 |  0.00
Other   |            | 0.002975   |            |       |  1.20

Nlocal:    84 ave 88 max 78 min
Histogram: 1 0 0 2 0 1 1 3 3 1
Nghost:    2618.67 ave 2642 max 2592 min
Histogram: 1 1 0 1 2 0 4 2 0 1
Neighs:    18724.2 ave 19378 max 17297 min
Histogram: 1 0 0 1 2 0 0 3 1 4

Total # of neighbors = 224690
Ave neighs/atom = 222.907
Neighbor list builds = 0
Dangerous builds = 0
  triclinic box = (0.0388306 0 0) to (23.2618 23.3007 23.3007) with tilt (0 0 0)
WARNING: Resetting reneighboring criteria during minimization (../min.cpp:168)
Ewald initialization ...
  G vector (1/distance) = 0.365078
  estimated absolute RMS force accuracy = 1.92793e-05
  estimated relative force accuracy = 1.33888e-06
  KSpace vectors: actual max1d max3d = 2084 10 4630
                  kxmax kymax kzmax  = 10 10 10
Memory usage per processor = 4.56171 Mbytes
Step Temp E_pair E_mol TotEng Press 
      20           10    -18273.25            0   -18271.948    2720.9902 
      43           10    -18273.32            0   -18272.018    191.42616 
Loop time of 0.355823 on 12 procs for 23 steps with 1008 atoms

99.8% CPU use with 12 MPI tasks x no OpenMP threads

Minimization stats:
  Stopping criterion = linesearch alpha is zero
  Energy initial, next-to-last, final = 
        -18273.2498456      -18273.320024      -18273.320024
  Force two-norm initial, final = 1.21405 0.0653392
  Force max component initial, final = 0.109159 0.0072228
  Final line search alpha, max atom move = 1.90735e-06 1.37764e-08
  Iterations, force evaluations = 23 119

MPI task timing breakdown:
Section |  min time  |  avg time  |  max time  |%varavg| %total
---------------------------------------------------------------
Pair    | 0.11936    | 0.13241    | 0.13954    |   1.6 | 37.21
Kspace  | 0.19084    | 0.19699    | 0.2013     |   0.8 | 55.36
Neigh   | 0          | 0          | 0          |   0.0 |  0.00
Comm    | 0.016988   | 0.022086   | 0.031094   |   2.6 |  6.21
Output  | 0          | 0          | 0          |   0.0 |  0.00
Modify  | 0          | 0          | 0          |   0.0 |  0.00
Other   |            | 0.004337   |            |       |  1.22

Nlocal:    84 ave 88 max 78 min
Histogram: 1 0 0 2 0 1 1 3 3 1
Nghost:    2615.67 ave 2640 max 2588 min
Histogram: 2 0 0 1 2 1 3 2 0 1
Neighs:    18695.2 ave 19347 max 17277 min
Histogram: 1 0 0 1 2 0 1 2 1 4

Total # of neighbors = 224342
Ave neighs/atom = 222.562
Neighbor list builds = 0
Dangerous builds = 0
  triclinic box = (0.0194211 0 0) to (23.2813 23.3007 23.3007) with tilt (0 0 0)
WARNING: Resetting reneighboring criteria during minimization (../min.cpp:168)
Ewald initialization ...
  G vector (1/distance) = 0.365066
  estimated absolute RMS force accuracy = 1.9345e-05
  estimated relative force accuracy = 1.34344e-06
  KSpace vectors: actual max1d max3d = 2084 10 4630
                  kxmax kymax kzmax  = 10 10 10
Memory usage per processor = 4.56171 Mbytes
Step Temp E_pair E_mol TotEng Press 
      43           10   -18273.321            0   -18272.019   -853.74622 
      50           10   -18273.336            0   -18272.034   -1900.2574 
      53           10   -18273.337            0   -18272.036   -1962.1183 
Loop time of 0.276421 on 12 procs for 10 steps with 1008 atoms

100.1% CPU use with 12 MPI tasks x no OpenMP threads

Minimization stats:
  Stopping criterion = linesearch alpha is zero
  Energy initial, next-to-last, final = 
        -18273.3206695     -18273.3371798     -18273.3371798
  Force two-norm initial, final = 0.602914 0.111607
  Force max component initial, final = 0.054064 0.00894526
  Final line search alpha, max atom move = 9.53674e-07 8.53086e-09
  Iterations, force evaluations = 10 91

MPI task timing breakdown:
Section |  min time  |  avg time  |  max time  |%varavg| %total
---------------------------------------------------------------
Pair    | 0.092104   | 0.10229    | 0.10761    |   1.4 | 37.01
Kspace  | 0.14923    | 0.15362    | 0.15719    |   0.6 | 55.57
Neigh   | 0          | 0          | 0          |   0.0 |  0.00
Comm    | 0.014171   | 0.017922   | 0.025268   |   2.3 |  6.48
Output  | 3.7909e-05 | 3.9339e-05 | 4.9114e-05 |   0.0 |  0.01
Modify  | 0          | 0          | 0          |   0.0 |  0.00
Other   |            | 0.002554   |            |       |  0.92

Nlocal:    84 ave 88 max 78 min
Histogram: 1 0 0 2 0 1 1 3 3 1
Nghost:    2613.67 ave 2636 max 2586 min
Histogram: 1 1 0 1 2 0 1 4 1 1
Neighs:    18665.7 ave 19317 max 17249 min
Histogram: 1 0 0 1 2 0 1 2 1 4

Total # of neighbors = 223988
Ave neighs/atom = 222.21
Neighbor list builds = 0
Dangerous builds = 0
  triclinic box = (0 0 0) to (23.3007 23.3007 23.3007) with tilt (0 0 0)
WARNING: Resetting reneighboring criteria during minimization (../min.cpp:168)
Ewald initialization ...
  G vector (1/distance) = 0.365055
  estimated absolute RMS force accuracy = 1.94166e-05
  estimated relative force accuracy = 1.34841e-06
  KSpace vectors: actual max1d max3d = 2084 10 4630
                  kxmax kymax kzmax  = 10 10 10
Memory usage per processor = 4.56171 Mbytes
Step Temp E_pair E_mol TotEng Press 
      53           10   -18273.303            0   -18272.002    -4391.934 
      54           10   -18273.303            0   -18272.002    -4391.934 
Loop time of 0.0732579 on 12 procs for 1 steps with 1008 atoms

99.6% CPU use with 12 MPI tasks x no OpenMP threads

Minimization stats:
  Stopping criterion = linesearch alpha is zero
  Energy initial, next-to-last, final = 
        -18273.3034322     -18273.3034322     -18273.3034322
  Force two-norm initial, final = 0.00478835 0.00478835
  Force max component initial, final = 0.000373975 0.000373975
  Final line search alpha, max atom move = 0.000488281 1.82605e-07
  Iterations, force evaluations = 1 23

MPI task timing breakdown:
Section |  min time  |  avg time  |  max time  |%varavg| %total
---------------------------------------------------------------
Pair    | 0.023854   | 0.02665    | 0.028441   |   0.7 | 36.38
Kspace  | 0.039113   | 0.040772   | 0.041794   |   0.4 | 55.65
Neigh   | 0          | 0          | 0          |   0.0 |  0.00
Comm    | 0.0037978  | 0.0048582  | 0.0065558  |   1.2 |  6.63
Output  | 0          | 0          | 0          |   0.0 |  0.00
Modify  | 0          | 0          | 0          |   0.0 |  0.00
Other   |            | 0.0009786  |            |       |  1.34

Nlocal:    84 ave 88 max 78 min
Histogram: 1 0 0 2 0 1 1 3 3 1
Nghost:    2610.17 ave 2634 max 2583 min
Histogram: 1 1 0 2 1 0 3 3 0 1
Neighs:    18634.9 ave 19288 max 17214 min
Histogram: 1 0 0 1 2 0 1 2 1 4

Total # of neighbors = 223619
Ave neighs/atom = 221.844
Neighbor list builds = 0
Dangerous builds = 0
  triclinic box = (-0.0194211 0 0) to (23.3201 23.3007 23.3007) with tilt (0 0 0)
WARNING: Resetting reneighboring criteria during minimization (../min.cpp:168)
Ewald initialization ...
  G vector (1/distance) = 0.365044
  estimated absolute RMS force accuracy = 1.94944e-05
  estimated relative force accuracy = 1.35381e-06
  KSpace vectors: actual max1d max3d = 2084 10 4630
                  kxmax kymax kzmax  = 10 10 10
Memory usage per processor = 4.56171 Mbytes
Step Temp E_pair E_mol TotEng Press 
      54           10   -18273.206            0   -18271.904    -7893.439 
      65           10   -18273.224            0   -18271.922    -6762.272 
Loop time of 0.184877 on 12 procs for 11 steps with 1008 atoms

99.8% CPU use with 12 MPI tasks x no OpenMP threads

Minimization stats:
  Stopping criterion = linesearch alpha is zero
  Energy initial, next-to-last, final = 
        -18273.2055892     -18273.2237444     -18273.2237444
  Force two-norm initial, final = 0.598831 0.0995347
  Force max component initial, final = 0.05326 0.0104153
  Final line search alpha, max atom move = 9.53674e-07 9.93284e-09
  Iterations, force evaluations = 11 61

MPI task timing breakdown:
Section |  min time  |  avg time  |  max time  |%varavg| %total
---------------------------------------------------------------
Pair    | 0.06097    | 0.068236   | 0.072061   |   1.2 | 36.91
Kspace  | 0.099414   | 0.10287    | 0.10554    |   0.6 | 55.64
Neigh   | 0          | 0          | 0          |   0.0 |  0.00
Comm    | 0.0092714  | 0.01175    | 0.016664   |   1.9 |  6.36
Output  | 0          | 0          | 0          |   0.0 |  0.00
Modify  | 0          | 0          | 0          |   0.0 |  0.00
Other   |            | 0.002025   |            |       |  1.10

Nlocal:    84 ave 88 max 78 min
Histogram: 1 0 0 2 0 1 1 3 3 1
Nghost:    2606.08 ave 2633 max 2576 min
Histogram: 1 1 1 2 0 0 3 3 0 1
Neighs:    18605.3 ave 19262 max 17189 min
Histogram: 1 0 0 1 2 0 1 2 1 4

Total # of neighbors = 223264
Ave neighs/atom = 221.492
Neighbor list builds = 0
Dangerous builds = 0
  triclinic box = (-0.0388306 0 0) to (23.3395 23.3007 23.3007) with tilt (0 0 0)
WARNING: Resetting reneighboring criteria during minimization (../min.cpp:168)
Ewald initialization ...
  G vector (1/distance) = 0.365032
  estimated absolute RMS force accuracy = 1.95788e-05
  estimated relative force accuracy = 1.35968e-06
  KSpace vectors: actual max1d max3d = 2084 10 4630
                  kxmax kymax kzmax  = 10 10 10
Memory usage per processor = 4.56171 Mbytes
Step Temp E_pair E_mol TotEng Press 
      65           10   -18273.021            0   -18271.719   -11354.906 
      85           10   -18273.089            0   -18271.787   -8930.5991 
Loop time of 0.240753 on 12 procs for 20 steps with 1008 atoms

99.5% CPU use with 12 MPI tasks x no OpenMP threads

Minimization stats:
  Stopping criterion = linesearch alpha is zero
  Energy initial, next-to-last, final = 
         -18273.020901     -18273.0888588     -18273.0888588
  Force two-norm initial, final = 1.18899 0.0875538
  Force max component initial, final = 0.105449 0.00869668
  Final line search alpha, max atom move = 9.53674e-07 8.2938e-09
  Iterations, force evaluations = 20 79

MPI task timing breakdown:
Section |  min time  |  avg time  |  max time  |%varavg| %total
---------------------------------------------------------------
Pair    | 0.079243   | 0.087553   | 0.092712   |   1.3 | 36.37
Kspace  | 0.12761    | 0.13191    | 0.13475    |   0.6 | 54.79
Neigh   | 0          | 0          | 0          |   0.0 |  0.00
Comm    | 0.013688   | 0.018603   | 0.025099   |   2.2 |  7.73
Output  | 0          | 0          | 0          |   0.0 |  0.00
Modify  | 0          | 0          | 0          |   0.0 |  0.00
Other   |            | 0.002683   |            |       |  1.11

Nlocal:    84 ave 88 max 78 min
Histogram: 1 0 0 2 0 1 1 3 3 1
Nghost:    2603.08 ave 2632 max 2573 min
Histogram: 1 1 2 1 0 1 2 3 0 1
Neighs:    18571.9 ave 19220 max 17156 min
Histogram: 1 0 0 1 2 0 0 3 1 4

Total # of neighbors = 222863
Ave neighs/atom = 221.094
Neighbor list builds = 0
Dangerous builds = 0
  triclinic box = (-0.0582517 0 0) to (23.3589 23.3007 23.3007) with tilt (0 0 0)
WARNING: Resetting reneighboring criteria during minimization (../min.cpp:168)
Ewald initialization ...
  G vector (1/distance) = 0.365021
  estimated absolute RMS force accuracy = 1.96704e-05
  estimated relative force accuracy = 1.36604e-06
  KSpace vectors: actual max1d max3d = 2084 10 4630
                  kxmax kymax kzmax  = 10 10 10
Memory usage per processor = 4.56171 Mbytes
Step Temp E_pair E_mol TotEng Press 
      85           10   -18272.756            0   -18271.455   -14782.342 
     100           10     -18272.9            0   -18271.599   -11250.028 
     103           10   -18272.902            0     -18271.6   -11211.269 
Loop time of 0.236098 on 12 procs for 18 steps with 1008 atoms

100.0% CPU use with 12 MPI tasks x no OpenMP threads

Minimization stats:
  Stopping criterion = linesearch alpha is zero
  Energy initial, next-to-last, final = 
          -18272.75645     -18272.9016637     -18272.9016637
  Force two-norm initial, final = 1.77281 0.159666
  Force max component initial, final = 0.156731 0.0170074
  Final line search alpha, max atom move = 4.76837e-07 8.10977e-09
  Iterations, force evaluations = 18 77

MPI task timing breakdown:
Section |  min time  |  avg time  |  max time  |%varavg| %total
---------------------------------------------------------------
Pair    | 0.077661   | 0.086688   | 0.092317   |   1.3 | 36.72
Kspace  | 0.12721    | 0.13151    | 0.13437    |   0.6 | 55.70
Neigh   | 0          | 0          | 0          |   0.0 |  0.00
Comm    | 0.012249   | 0.015152   | 0.021654   |   2.2 |  6.42
Output  | 3.4809e-05 | 3.618e-05  | 4.6968e-05 |   0.1 |  0.02
Modify  | 0          | 0          | 0          |   0.0 |  0.00
Other   |            | 0.002709   |            |       |  1.15

Nlocal:    84 ave 88 max 78 min
Histogram: 1 0 0 2 0 1 1 3 3 1
Nghost:    2600.58 ave 2631 max 2570 min
Histogram: 1 1 2 1 1 0 2 3 0 1
Neighs:    18540.5 ave 19183 max 17126 min
Histogram: 1 0 0 1 2 0 0 3 1 4

Total # of neighbors = 222486
Ave neighs/atom = 220.72
Neighbor list builds = 0
Dangerous builds = 0
  triclinic box = (0 0.0582517 0) to (23.3007 23.2424 23.3007) with tilt (0 0 0)
WARNING: Resetting reneighboring criteria during minimization (../min.cpp:168)
Ewald initialization ...
  G vector (1/distance) = 0.365089
  estimated absolute RMS force accuracy = 1.92191e-05
  estimated relative force accuracy = 1.33469e-06
  KSpace vectors: actual max1d max3d = 2088 10 4630
                  kxmax kymax kzmax  = 10 10 10
Memory usage per processor = 4.56171 Mbytes
Step Temp E_pair E_mol TotEng Press 
     103           10   -18273.285            0   -18271.984    6352.2228 
     119           10   -18273.433            0   -18272.131    2770.8411 
Loop time of 0.239431 on 12 procs for 16 steps with 1008 atoms

100.2% CPU use with 12 MPI tasks x no OpenMP threads

Minimization stats:
  Stopping criterion = linesearch alpha is zero
  Energy initial, next-to-last, final = 
        -18273.2853116     -18273.4329482     -18273.4329482
  Force two-norm initial, final = 1.77071 0.252221
  Force max component initial, final = 0.176028 0.0218985
  Final line search alpha, max atom move = 1.00944e-07 2.21052e-09
  Iterations, force evaluations = 16 77

MPI task timing breakdown:
Section |  min time  |  avg time  |  max time  |%varavg| %total
---------------------------------------------------------------
Pair    | 0.080072   | 0.088264   | 0.094133   |   1.3 | 36.86
Kspace  | 0.12701    | 0.13261    | 0.13624    |   0.7 | 55.39
Neigh   | 0          | 0          | 0          |   0.0 |  0.00
Comm    | 0.011913   | 0.015824   | 0.021449   |   2.2 |  6.61
Output  | 0          | 0          | 0          |   0.0 |  0.00
Modify  | 0          | 0          | 0          |   0.0 |  0.00
Other   |            | 0.002734   |            |       |  1.14

Nlocal:    84 ave 88 max 78 min
Histogram: 1 0 0 2 0 1 1 3 3 1
Nghost:    2625.33 ave 2645 max 2601 min
Histogram: 2 0 1 1 1 2 0 2 1 2
Neighs:    18727 ave 19379 max 17289 min
Histogram: 1 0 0 1 2 0 0 3 1 4

Total # of neighbors = 224724
Ave neighs/atom = 222.94
Neighbor list builds = 0
Dangerous builds = 0
  triclinic box = (0 0.0388306 0) to (23.3007 23.2618 23.3007) with tilt (0 0 0)
WARNING: Resetting reneighboring criteria during minimization (../min.cpp:168)
Ewald initialization ...
  G vector (1/distance) = 0.365078
  estimated absolute RMS force accuracy = 1.92793e-05
  estimated relative force accuracy = 1.33888e-06
  KSpace vectors: actual max1d max3d = 2084 10 4630
                  kxmax kymax kzmax  = 10 10 10
Memory usage per processor = 4.56171 Mbytes
Step Temp E_pair E_mol TotEng Press 
     119           10   -18273.379            0   -18272.077    2731.2847 
     133           10   -18273.442            0    -18272.14    430.76317 
Loop time of 0.217178 on 12 procs for 14 steps with 1008 atoms

99.7% CPU use with 12 MPI tasks x no OpenMP threads

Minimization stats:
  Stopping criterion = linesearch alpha is zero
  Energy initial, next-to-last, final = 
        -18273.3787328     -18273.4415967     -18273.4415967
  Force two-norm initial, final = 1.17313 0.175827
  Force max component initial, final = 0.116238 0.0142733
  Final line search alpha, max atom move = 2.38419e-07 3.40301e-09
  Iterations, force evaluations = 14 71

MPI task timing breakdown:
Section |  min time  |  avg time  |  max time  |%varavg| %total
---------------------------------------------------------------
Pair    | 0.072453   | 0.080542   | 0.085101   |   1.3 | 37.09
Kspace  | 0.11706    | 0.12056    | 0.12351    |   0.6 | 55.51
Neigh   | 0          | 0          | 0          |   0.0 |  0.00
Comm    | 0.010586   | 0.013712   | 0.019091   |   2.1 |  6.31
Output  | 0          | 0          | 0          |   0.0 |  0.00
Modify  | 0          | 0          | 0          |   0.0 |  0.00
Other   |            | 0.002364   |            |       |  1.09

Nlocal:    84 ave 88 max 78 min
Histogram: 1 0 0 2 0 1 1 3 3 1
Nghost:    2617.58 ave 2638 max 2594 min
Histogram: 1 1 1 2 0 2 0 2 1 2
Neighs:    18696.2 ave 19345 max 17259 min
Histogram: 1 0 0 1 2 0 0 3 1 4

Total # of neighbors = 224355
Ave neighs/atom = 222.574
Neighbor list builds = 0
Dangerous builds = 0
  triclinic box = (0 0.0194211 0) to (23.3007 23.2813 23.3007) with tilt (0 0 0)
WARNING: Resetting reneighboring criteria during minimization (../min.cpp:168)
Ewald initialization ...
  G vector (1/distance) = 0.365066
  estimated absolute RMS force accuracy = 1.9345e-05
  estimated relative force accuracy = 1.34344e-06
  KSpace vectors: actual max1d max3d = 2084 10 4630
                  kxmax kymax kzmax  = 10 10 10
Memory usage per processor = 4.56171 Mbytes
Step Temp E_pair E_mol TotEng Press 
     133           10   -18273.385            0   -18272.083   -848.70246 
     140           10   -18273.399            0   -18272.097   -1808.1532 
Loop time of 0.169277 on 12 procs for 7 steps with 1008 atoms

99.7% CPU use with 12 MPI tasks x no OpenMP threads

Minimization stats:
  Stopping criterion = linesearch alpha is zero
  Energy initial, next-to-last, final = 
        -18273.3850043     -18273.3990815     -18273.3990815
  Force two-norm initial, final = 0.582685 0.159983
  Force max component initial, final = 0.0575945 0.0180955
  Final line search alpha, max atom move = 4.76837e-07 8.62862e-09
  Iterations, force evaluations = 7 55

MPI task timing breakdown:
Section |  min time  |  avg time  |  max time  |%varavg| %total
---------------------------------------------------------------
Pair    | 0.056252   | 0.062458   | 0.066614   |   1.1 | 36.90
Kspace  | 0.090625   | 0.09428    | 0.096296   |   0.5 | 55.70
Neigh   | 0          | 0          | 0          |   0.0 |  0.00
Comm    | 0.0080242  | 0.010631   | 0.01485    |   1.9 |  6.28
Output  | 0          | 0          | 0          |   0.0 |  0.00
Modify  | 0          | 0          | 0          |   0.0 |  0.00
Other   |            | 0.001907   |            |       |  1.13

Nlocal:    84 ave 88 max 78 min
Histogram: 1 0 0 2 0 1 1 3 3 1
Nghost:    2615.17 ave 2638 max 2591 min
Histogram: 1 1 1 2 0 1 2 3 0 1
Neighs:    18665 ave 19318 max 17238 min
Histogram: 1 0 0 1 2 0 1 2 1 4

Total # of neighbors = 223980
Ave neighs/atom = 222.202
Neighbor list builds = 0
Dangerous builds = 0
  triclinic box = (0 0 0) to (23.3007 23.3007 23.3007) with tilt (0 0 0)
WARNING: Resetting reneighboring criteria during minimization (../min.cpp:168)
Ewald initialization ...
  G vector (1/distance) = 0.365055
  estimated absolute RMS force accuracy = 1.94166e-05
  estimated relative force accuracy = 1.34841e-06
  KSpace vectors: actual max1d max3d = 2084 10 4630
                  kxmax kymax kzmax  = 10 10 10
Memory usage per processor = 4.56171 Mbytes
Step Temp E_pair E_mol TotEng Press 
     140           10   -18273.303            0   -18272.002    -4391.934 
     141           10   -18273.303            0   -18272.002    -4391.934 
Loop time of 0.0725918 on 12 procs for 1 steps with 1008 atoms

99.6% CPU use with 12 MPI tasks x no OpenMP threads

Minimization stats:
  Stopping criterion = linesearch alpha is zero
  Energy initial, next-to-last, final = 
        -18273.3034322     -18273.3034322     -18273.3034322
  Force two-norm initial, final = 0.00478835 0.00478835
  Force max component initial, final = 0.000373975 0.000373975
  Final line search alpha, max atom move = 0.000488281 1.82605e-07
  Iterations, force evaluations = 1 23

MPI task timing breakdown:
Section |  min time  |  avg time  |  max time  |%varavg| %total
---------------------------------------------------------------
Pair    | 0.023999   | 0.026778   | 0.028417   |   0.7 | 36.89
Kspace  | 0.039079   | 0.040328   | 0.041266   |   0.3 | 55.55
Neigh   | 0          | 0          | 0          |   0.0 |  0.00
Comm    | 0.0036387  | 0.0046451  | 0.00653    |   1.2 |  6.40
Output  | 0          | 0          | 0          |   0.0 |  0.00
Modify  | 0          | 0          | 0          |   0.0 |  0.00
Other   |            | 0.0008403  |            |       |  1.16

Nlocal:    84 ave 88 max 78 min
Histogram: 1 0 0 2 0 1 1 3 3 1
Nghost:    2610.17 ave 2634 max 2583 min
Histogram: 1 1 0 2 1 0 3 3 0 1
Neighs:    18634.9 ave 19288 max 17214 min
Histogram: 1 0 0 1 2 0 1 2 1 4

Total # of neighbors = 223619
Ave neighs/atom = 221.844
Neighbor list builds = 0
Dangerous builds = 0
  triclinic box = (0 -0.0194211 0) to (23.3007 23.3201 23.3007) with tilt (0 0 0)
WARNING: Resetting reneighboring criteria during minimization (../min.cpp:168)
Ewald initialization ...
  G vector (1/distance) = 0.365044
  estimated absolute RMS force accuracy = 1.94944e-05
  estimated relative force accuracy = 1.35381e-06
  KSpace vectors: actual max1d max3d = 2084 10 4630
                  kxmax kymax kzmax  = 10 10 10
Memory usage per processor = 4.56171 Mbytes
Step Temp E_pair E_mol TotEng Press 
     141           10   -18273.143            0   -18271.842   -7898.7411 
     150           10   -18273.159            0   -18271.858   -6852.8317 
Loop time of 0.184664 on 12 procs for 9 steps with 1008 atoms

99.9% CPU use with 12 MPI tasks x no OpenMP threads

Minimization stats:
  Stopping criterion = linesearch alpha is zero
  Energy initial, next-to-last, final = 
        -18273.1434231     -18273.1592365     -18273.1592365
  Force two-norm initial, final = 0.579136 0.126089
  Force max component initial, final = 0.0564777 0.0131038
  Final line search alpha, max atom move = 4.76837e-07 6.24839e-09
  Iterations, force evaluations = 9 59

MPI task timing breakdown:
Section |  min time  |  avg time  |  max time  |%varavg| %total
---------------------------------------------------------------
Pair    | 0.06126    | 0.068098   | 0.0718     |   1.1 | 36.88
Kspace  | 0.099161   | 0.1023     | 0.10498    |   0.6 | 55.40
Neigh   | 0          | 0          | 0          |   0.0 |  0.00
Comm    | 0.0089746  | 0.01223    | 0.016158   |   1.9 |  6.62
Output  | 0          | 0          | 0          |   0.0 |  0.00
Modify  | 0          | 0          | 0          |   0.0 |  0.00
Other   |            | 0.002038   |            |       |  1.10

Nlocal:    84 ave 88 max 78 min
Histogram: 1 0 0 2 0 1 1 3 3 1
Nghost:    2607.75 ave 2633 max 2580 min
Histogram: 1 1 0 2 1 0 4 2 0 1
Neighs:    18603.8 ave 19258 max 17177 min
Histogram: 1 0 0 1 2 0 1 2 1 4

Total # of neighbors = 223246
Ave neighs/atom = 221.474
Neighbor list builds = 0
Dangerous builds = 0
  triclinic box = (0 -0.0388306 0) to (23.3007 23.3395 23.3007) with tilt (0 0 0)
WARNING: Resetting reneighboring criteria during minimization (../min.cpp:168)
Ewald initialization ...
  G vector (1/distance) = 0.365032
  estimated absolute RMS force accuracy = 1.95788e-05
  estimated relative force accuracy = 1.35968e-06
  KSpace vectors: actual max1d max3d = 2084 10 4630
                  kxmax kymax kzmax  = 10 10 10
Memory usage per processor = 4.56171 Mbytes
Step Temp E_pair E_mol TotEng Press 
     150           10   -18272.898            0   -18271.596   -11365.404 
     171           10   -18272.966            0   -18271.664   -8970.9309 
Loop time of 0.24961 on 12 procs for 21 steps with 1008 atoms

99.7% CPU use with 12 MPI tasks x no OpenMP threads

Minimization stats:
  Stopping criterion = linesearch alpha is zero
  Energy initial, next-to-last, final = 
        -18272.8976959      -18272.965998      -18272.965998
  Force two-norm initial, final = 1.14995 0.106451
  Force max component initial, final = 0.111859 0.0103803
  Final line search alpha, max atom move = 9.53674e-07 9.89943e-09
  Iterations, force evaluations = 21 81

MPI task timing breakdown:
Section |  min time  |  avg time  |  max time  |%varavg| %total
---------------------------------------------------------------
Pair    | 0.08332    | 0.092179   | 0.098023   |   1.3 | 36.93
Kspace  | 0.13272    | 0.13866    | 0.14228    |   0.8 | 55.55
Neigh   | 0          | 0          | 0          |   0.0 |  0.00
Comm    | 0.011755   | 0.016021   | 0.021574   |   2.3 |  6.42
Output  | 0          | 0          | 0          |   0.0 |  0.00
Modify  | 0          | 0          | 0          |   0.0 |  0.00
Other   |            | 0.002755   |            |       |  1.10

Nlocal:    84 ave 88 max 78 min
Histogram: 1 0 0 2 0 1 1 3 3 1
Nghost:    2606.75 ave 2632 max 2580 min
Histogram: 1 1 0 3 0 1 3 2 0 1
Neighs:    18570.4 ave 19212 max 17145 min
Histogram: 1 0 0 1 2 0 0 3 1 4

Total # of neighbors = 222845
Ave neighs/atom = 221.076
Neighbor list builds = 0
Dangerous builds = 0
  triclinic box = (0 -0.0582517 0) to (23.3007 23.3589 23.3007) with tilt (0 0 0)
WARNING: Resetting reneighboring criteria during minimization (../min.cpp:168)
Ewald initialization ...
  G vector (1/distance) = 0.365021
  estimated absolute RMS force accuracy = 1.96704e-05
  estimated relative force accuracy = 1.36604e-06
  KSpace vectors: actual max1d max3d = 2084 10 4630
                  kxmax kymax kzmax  = 10 10 10
Memory usage per processor = 4.56171 Mbytes
Step Temp E_pair E_mol TotEng Press 
     171           10   -18272.571            0   -18271.269   -14797.329 
     200           10   -18272.718            0   -18271.417   -11168.888 
Loop time of 0.301077 on 12 procs for 29 steps with 1008 atoms

99.9% CPU use with 12 MPI tasks x no OpenMP threads

Minimization stats:
  Stopping criterion = linesearch alpha is zero
  Energy initial, next-to-last, final = 
        -18272.5705891      -18272.718151      -18272.718151
  Force two-norm initial, final = 1.71496 0.0811519
  Force max component initial, final = 0.166221 0.00743753
  Final line search alpha, max atom move = 9.53674e-07 7.09298e-09
  Iterations, force evaluations = 29 97

MPI task timing breakdown:
Section |  min time  |  avg time  |  max time  |%varavg| %total
---------------------------------------------------------------
Pair    | 0.099082   | 0.11002    | 0.11548    |   1.4 | 36.54
Kspace  | 0.16022    | 0.16587    | 0.17033    |   0.8 | 55.09
Neigh   | 0          | 0          | 0          |   0.0 |  0.00
Comm    | 0.015411   | 0.020625   | 0.027044   |   2.6 |  6.85
Output  | 0          | 0          | 0          |   0.0 |  0.00
Modify  | 0          | 0          | 0          |   0.0 |  0.00
Other   |            | 0.004562   |            |       |  1.52

Nlocal:    84 ave 88 max 78 min
Histogram: 1 0 0 2 0 1 1 3 3 1
Nghost:    2599.33 ave 2619 max 2572 min
Histogram: 1 1 0 1 2 0 2 2 2 1
Neighs:    18540.2 ave 19176 max 17123 min
Histogram: 1 0 0 1 2 0 0 3 1 4

Total # of neighbors = 222482
Ave neighs/atom = 220.716
Neighbor list builds = 0
Dangerous builds = 0
  triclinic box = (0 0 0.0582517) to (23.3007 23.3007 23.2424) with tilt (0 0 0)
WARNING: Resetting reneighboring criteria during minimization (../min.cpp:168)
Ewald initialization ...
  G vector (1/distance) = 0.365089
  estimated absolute RMS force accuracy = 1.92191e-05
  estimated relative force accuracy = 1.33469e-06
  KSpace vectors: actual max1d max3d = 2088 10 4630
                  kxmax kymax kzmax  = 10 10 10
Memory usage per processor = 4.56171 Mbytes
Step Temp E_pair E_mol TotEng Press 
     200           10   -18273.198            0   -18271.896    6161.7977 
     222           10    -18273.35            0   -18272.048     2455.621 
Loop time of 0.256395 on 12 procs for 22 steps with 1008 atoms

99.9% CPU use with 12 MPI tasks x no OpenMP threads

Minimization stats:
  Stopping criterion = linesearch alpha is zero
  Energy initial, next-to-last, final = 
        -18273.1980783     -18273.3500532     -18273.3500532
  Force two-norm initial, final = 1.92982 0.0959071
  Force max component initial, final = 0.166107 0.00887044
  Final line search alpha, max atom move = 9.53674e-07 8.45951e-09
  Iterations, force evaluations = 22 83

MPI task timing breakdown:
Section |  min time  |  avg time  |  max time  |%varavg| %total
---------------------------------------------------------------
Pair    | 0.085773   | 0.094905   | 0.099329   |   1.3 | 37.02
Kspace  | 0.13694    | 0.14104    | 0.14462    |   0.7 | 55.01
Neigh   | 0          | 0          | 0          |   0.0 |  0.00
Comm    | 0.012666   | 0.017181   | 0.022872   |   2.3 |  6.70
Output  | 0          | 0          | 0          |   0.0 |  0.00
Modify  | 0          | 0          | 0          |   0.0 |  0.00
Other   |            | 0.003264   |            |       |  1.27

Nlocal:    84 ave 88 max 78 min
Histogram: 1 0 0 2 0 1 1 3 3 1
Nghost:    2623.67 ave 2643 max 2595 min
Histogram: 1 0 2 1 0 2 0 2 2 2
Neighs:    18730.6 ave 19379 max 17297 min
Histogram: 1 0 0 1 2 0 0 3 1 4

Total # of neighbors = 224767
Ave neighs/atom = 222.983
Neighbor list builds = 0
Dangerous builds = 0
  triclinic box = (0 0 0.0388306) to (23.3007 23.3007 23.2618) with tilt (0 0 0)
WARNING: Resetting reneighboring criteria during minimization (../min.cpp:168)
Ewald initialization ...
  G vector (1/distance) = 0.365078
  estimated absolute RMS force accuracy = 1.92793e-05
  estimated relative force accuracy = 1.33888e-06
  KSpace vectors: actual max1d max3d = 2084 10 4630
                  kxmax kymax kzmax  = 10 10 10
Memory usage per processor = 4.56171 Mbytes
Step Temp E_pair E_mol TotEng Press 
     222           10   -18273.318            0   -18272.017    2605.5667 
     238           10   -18273.384            0   -18272.082    218.24767 
Loop time of 0.218736 on 12 procs for 16 steps with 1008 atoms

99.7% CPU use with 12 MPI tasks x no OpenMP threads

Minimization stats:
  Stopping criterion = linesearch alpha is zero
  Energy initial, next-to-last, final = 
        -18273.3182875     -18273.3840968     -18273.3840968
  Force two-norm initial, final = 1.27862 0.113593
  Force max component initial, final = 0.10937 0.0126414
  Final line search alpha, max atom move = 9.53674e-07 1.20558e-08
  Iterations, force evaluations = 16 71

MPI task timing breakdown:
Section |  min time  |  avg time  |  max time  |%varavg| %total
---------------------------------------------------------------
Pair    | 0.073413   | 0.080993   | 0.085164   |   1.2 | 37.03
Kspace  | 0.11692    | 0.1205     | 0.12347    |   0.6 | 55.09
Neigh   | 0          | 0          | 0          |   0.0 |  0.00
Comm    | 0.010954   | 0.014515   | 0.0193     |   2.0 |  6.64
Output  | 0          | 0          | 0          |   0.0 |  0.00
Modify  | 0          | 0          | 0          |   0.0 |  0.00
Other   |            | 0.002726   |            |       |  1.25

Nlocal:    84 ave 88 max 78 min
Histogram: 1 0 0 2 0 1 1 3 3 1
Nghost:    2619.42 ave 2639 max 2590 min
Histogram: 1 0 2 1 0 1 1 2 2 2
Neighs:    18697.3 ave 19346 max 17263 min
Histogram: 1 0 0 1 2 0 0 3 1 4

Total # of neighbors = 224368
Ave neighs/atom = 222.587
Neighbor list builds = 0
Dangerous builds = 0
  triclinic box = (0 0 0.0194211) to (23.3007 23.3007 23.2813) with tilt (0 0 0)
WARNING: Resetting reneighboring criteria during minimization (../min.cpp:168)
Ewald initialization ...
  G vector (1/distance) = 0.365066
  estimated absolute RMS force accuracy = 1.9345e-05
  estimated relative force accuracy = 1.34344e-06
  KSpace vectors: actual max1d max3d = 2084 10 4630
                  kxmax kymax kzmax  = 10 10 10
Memory usage per processor = 4.56171 Mbytes
Step Temp E_pair E_mol TotEng Press 
     238           10   -18273.354            0   -18272.052   -911.06732 
     244           10   -18273.366            0   -18272.065   -1832.4919 
Loop time of 0.170988 on 12 procs for 6 steps with 1008 atoms

99.9% CPU use with 12 MPI tasks x no OpenMP threads

Minimization stats:
  Stopping criterion = linesearch alpha is zero
  Energy initial, next-to-last, final = 
        -18273.3540588     -18273.3662142     -18273.3662142
  Force two-norm initial, final = 0.635223 0.171519
  Force max component initial, final = 0.0541654 0.0140505
  Final line search alpha, max atom move = 2.38419e-07 3.34989e-09
  Iterations, force evaluations = 6 55

MPI task timing breakdown:
Section |  min time  |  avg time  |  max time  |%varavg| %total
---------------------------------------------------------------
Pair    | 0.056826   | 0.062889   | 0.067261   |   1.1 | 36.78
Kspace  | 0.090747   | 0.094687   | 0.097551   |   0.6 | 55.38
Neigh   | 0          | 0          | 0          |   0.0 |  0.00
Comm    | 0.0084078  | 0.01136    | 0.015056   |   1.9 |  6.64
Output  | 0          | 0          | 0          |   0.0 |  0.00
Modify  | 0          | 0          | 0          |   0.0 |  0.00
Other   |            | 0.002052   |            |       |  1.20

Nlocal:    84 ave 88 max 78 min
Histogram: 1 0 0 2 0 1 1 3 3 1
Nghost:    2613.42 ave 2634 max 2584 min
Histogram: 1 0 1 2 0 1 2 2 1 2
Neighs:    18665.7 ave 19317 max 17240 min
Histogram: 1 0 0 1 2 0 0 3 1 4

Total # of neighbors = 223988
Ave neighs/atom = 222.21
Neighbor list builds = 0
Dangerous builds = 0
  triclinic box = (0 0 0) to (23.3007 23.3007 23.3007) with tilt (0 0 0)
WARNING: Resetting reneighboring criteria during minimization (../min.cpp:168)
Ewald initialization ...
  G vector (1/distance) = 0.365055
  estimated absolute RMS force accuracy = 1.94166e-05
  estimated relative force accuracy = 1.34841e-06
  KSpace vectors: actual max1d max3d = 2084 10 4630
                  kxmax kymax kzmax  = 10 10 10
Memory usage per processor = 4.56171 Mbytes
Step Temp E_pair E_mol TotEng Press 
     244           10   -18273.303            0   -18272.002    -4391.934 
     245           10   -18273.303            0   -18272.002    -4391.934 
Loop time of 0.0738358 on 12 procs for 1 steps with 1008 atoms

99.6% CPU use with 12 MPI tasks x no OpenMP threads

Minimization stats:
  Stopping criterion = linesearch alpha is zero
  Energy initial, next-to-last, final = 
        -18273.3034322     -18273.3034322     -18273.3034322
  Force two-norm initial, final = 0.00478835 0.00478835
  Force max component initial, final = 0.000373975 0.000373975
  Final line search alpha, max atom move = 0.000488281 1.82605e-07
  Iterations, force evaluations = 1 23

MPI task timing breakdown:
Section |  min time  |  avg time  |  max time  |%varavg| %total
---------------------------------------------------------------
Pair    | 0.024283   | 0.027054   | 0.028551   |   0.7 | 36.64
Kspace  | 0.039285   | 0.040495   | 0.041555   |   0.3 | 54.84
Neigh   | 0          | 0          | 0          |   0.0 |  0.00
Comm    | 0.00421    | 0.0053194  | 0.0070877  |   1.2 |  7.20
Output  | 0          | 0          | 0          |   0.0 |  0.00
Modify  | 0          | 0          | 0          |   0.0 |  0.00
Other   |            | 0.0009672  |            |       |  1.31

Nlocal:    84 ave 88 max 78 min
Histogram: 1 0 0 2 0 1 1 3 3 1
Nghost:    2610.17 ave 2634 max 2583 min
Histogram: 1 1 0 2 1 0 3 3 0 1
Neighs:    18634.9 ave 19288 max 17214 min
Histogram: 1 0 0 1 2 0 1 2 1 4

Total # of neighbors = 223619
Ave neighs/atom = 221.844
Neighbor list builds = 0
Dangerous builds = 0
  triclinic box = (0 0 -0.0194211) to (23.3007 23.3007 23.3201) with tilt (0 0 0)
WARNING: Resetting reneighboring criteria during minimization (../min.cpp:168)
Ewald initialization ...
  G vector (1/distance) = 0.365044
  estimated absolute RMS force accuracy = 1.94944e-05
  estimated relative force accuracy = 1.35381e-06
  KSpace vectors: actual max1d max3d = 2084 10 4630
                  kxmax kymax kzmax  = 10 10 10
Memory usage per processor = 4.56171 Mbytes
Step Temp E_pair E_mol TotEng Press 
     245           10   -18273.175            0   -18271.873   -7837.2366 
     250           10   -18273.191            0   -18271.889   -6885.6891 
     258           10   -18273.193            0   -18271.891   -6676.5377 
Loop time of 0.195015 on 12 procs for 13 steps with 1008 atoms

99.8% CPU use with 12 MPI tasks x no OpenMP threads

Minimization stats:
  Stopping criterion = linesearch alpha is zero
  Energy initial, next-to-last, final = 
        -18273.1750507     -18273.1931178     -18273.1931178
  Force two-norm initial, final = 0.630961 0.0773393
  Force max component initial, final = 0.0524154 0.00707458
  Final line search alpha, max atom move = 1.90735e-06 1.34937e-08
  Iterations, force evaluations = 13 63

MPI task timing breakdown:
Section |  min time  |  avg time  |  max time  |%varavg| %total
---------------------------------------------------------------
Pair    | 0.064491   | 0.071629   | 0.076026   |   1.1 | 36.73
Kspace  | 0.10515    | 0.10819    | 0.11028    |   0.5 | 55.48
Neigh   | 0          | 0          | 0          |   0.0 |  0.00
Comm    | 0.009999   | 0.0126     | 0.017724   |   2.0 |  6.46
Output  | 3.5048e-05 | 3.6597e-05 | 4.6015e-05 |   0.0 |  0.02
Modify  | 0          | 0          | 0          |   0.0 |  0.00
Other   |            | 0.002561   |            |       |  1.31

Nlocal:    84 ave 88 max 78 min
Histogram: 1 0 0 2 0 1 1 3 3 1
Nghost:    2606.17 ave 2632 max 2579 min
Histogram: 1 1 1 2 0 1 3 2 0 1
Neighs:    18602.5 ave 19250 max 17185 min
Histogram: 1 0 0 1 2 0 0 3 1 4

Total # of neighbors = 223230
Ave neighs/atom = 221.458
Neighbor list builds = 0
Dangerous builds = 0
  triclinic box = (0 0 -0.0388306) to (23.3007 23.3007 23.3395) with tilt (0 0 0)
WARNING: Resetting reneighboring criteria during minimization (../min.cpp:168)
Ewald initialization ...
  G vector (1/distance) = 0.365032
  estimated absolute RMS force accuracy = 1.95788e-05
  estimated relative force accuracy = 1.35968e-06
  KSpace vectors: actual max1d max3d = 2084 10 4630
                  kxmax kymax kzmax  = 10 10 10
Memory usage per processor = 4.56171 Mbytes
Step Temp E_pair E_mol TotEng Press 
     258           10   -18272.966            0   -18271.664   -11244.324 
     276           10   -18273.034            0   -18271.733   -8853.2148 
Loop time of 0.231547 on 12 procs for 18 steps with 1008 atoms

99.8% CPU use with 12 MPI tasks x no OpenMP threads

Minimization stats:
  Stopping criterion = linesearch alpha is zero
  Energy initial, next-to-last, final = 
        -18272.9659375     -18273.0341651     -18273.0341651
  Force two-norm initial, final = 1.25308 0.096011
  Force max component initial, final = 0.103586 0.0120523
  Final line search alpha, max atom move = 9.53674e-07 1.1494e-08
  Iterations, force evaluations = 18 75

MPI task timing breakdown:
Section |  min time  |  avg time  |  max time  |%varavg| %total
---------------------------------------------------------------
Pair    | 0.077062   | 0.085191   | 0.089127   |   1.2 | 36.79
Kspace  | 0.12347    | 0.12725    | 0.13009    |   0.6 | 54.96
Neigh   | 0          | 0          | 0          |   0.0 |  0.00
Comm    | 0.011891   | 0.016524   | 0.022191   |   2.2 |  7.14
Output  | 0          | 0          | 0          |   0.0 |  0.00
Modify  | 0          | 0          | 0          |   0.0 |  0.00
Other   |            | 0.002585   |            |       |  1.12

Nlocal:    84 ave 88 max 78 min
Histogram: 1 0 0 2 0 1 1 3 3 1
Nghost:    2601.92 ave 2629 max 2569 min
Histogram: 1 0 1 1 1 2 3 0 2 1
Neighs:    18571.2 ave 19223 max 17159 min
Histogram: 1 0 0 1 2 0 0 3 1 4

Total # of neighbors = 222855
Ave neighs/atom = 221.086
Neighbor list builds = 0
Dangerous builds = 0
  triclinic box = (0 0 -0.0582517) to (23.3007 23.3007 23.3589) with tilt (0 0 0)
WARNING: Resetting reneighboring criteria during minimization (../min.cpp:168)
Ewald initialization ...
  G vector (1/distance) = 0.365021
  estimated absolute RMS force accuracy = 1.96704e-05
  estimated relative force accuracy = 1.36604e-06
  KSpace vectors: actual max1d max3d = 2084 10 4630
                  kxmax kymax kzmax  = 10 10 10
Memory usage per processor = 4.56171 Mbytes
Step Temp E_pair E_mol TotEng Press 
     276           10   -18272.676            0   -18271.374   -14617.283 
     299           10   -18272.826            0   -18271.524   -10952.058 
Loop time of 0.266988 on 12 procs for 23 steps with 1008 atoms

99.9% CPU use with 12 MPI tasks x no OpenMP threads

Minimization stats:
  Stopping criterion = linesearch alpha is zero
  Energy initial, next-to-last, final = 
        -18272.6755837     -18272.8261189     -18272.8261189
  Force two-norm initial, final = 1.86879 0.109285
  Force max component initial, final = 0.153462 0.0100337
  Final line search alpha, max atom move = 9.53674e-07 9.56884e-09
  Iterations, force evaluations = 23 87

MPI task timing breakdown:
Section |  min time  |  avg time  |  max time  |%varavg| %total
---------------------------------------------------------------
Pair    | 0.088827   | 0.098489   | 0.10397    |   1.3 | 36.89
Kspace  | 0.14383    | 0.14781    | 0.15083    |   0.6 | 55.36
Neigh   | 0          | 0          | 0          |   0.0 |  0.00
Comm    | 0.013627   | 0.017598   | 0.024232   |   2.4 |  6.59
Output  | 0          | 0          | 0          |   0.0 |  0.00
Modify  | 0          | 0          | 0          |   0.0 |  0.00
Other   |            | 0.003092   |            |       |  1.16

Nlocal:    84 ave 88 max 78 min
Histogram: 1 0 0 2 0 1 1 3 3 1
Nghost:    2597.42 ave 2623 max 2566 min
Histogram: 1 0 2 0 1 2 3 0 2 1
Neighs:    18541 ave 19187 max 17125 min
Histogram: 1 0 0 1 2 0 0 3 1 4

Total # of neighbors = 222492
Ave neighs/atom = 220.726
Neighbor list builds = 0
Dangerous builds = 0
  triclinic box = (0 0 0) to (23.3007 23.3007 23.3007) with tilt (-0.116503 0 0)
WARNING: Resetting reneighboring criteria during minimization (../min.cpp:168)
Ewald initialization ...
  G vector (1/distance) = 0.365055
  estimated absolute RMS force accuracy = 1.94166e-05
  estimated relative force accuracy = 1.34841e-06
  KSpace vectors: actual max1d max3d = 2079 10 4630
                  kxmax kymax kzmax  = 10 10 10
Memory usage per processor = 4.56171 Mbytes
Step Temp E_pair E_mol TotEng Press 
     299           10     -18273.1            0   -18271.798   -4383.5707 
     300           10   -18273.123            0   -18271.821   -4355.0013 
     316           10   -18273.155            0   -18271.854   -4422.2642 
Loop time of 0.344267 on 12 procs for 17 steps with 1008 atoms

99.9% CPU use with 12 MPI tasks x no OpenMP threads

Minimization stats:
  Stopping criterion = linesearch alpha is zero
  Energy initial, next-to-last, final = 
        -18273.0999774     -18273.1552046     -18273.1552046
  Force two-norm initial, final = 1.23813 0.0883622
  Force max component initial, final = 0.123427 0.00734507
  Final line search alpha, max atom move = 9.53674e-07 7.0048e-09
  Iterations, force evaluations = 17 113

MPI task timing breakdown:
Section |  min time  |  avg time  |  max time  |%varavg| %total
---------------------------------------------------------------
Pair    | 0.11616    | 0.12762    | 0.13571    |   1.4 | 37.07
Kspace  | 0.18292    | 0.19016    | 0.19297    |   0.7 | 55.24
Neigh   | 0          | 0          | 0          |   0.0 |  0.00
Comm    | 0.017294   | 0.022578   | 0.030918   |   2.6 |  6.56
Output  | 3.1948e-05 | 3.2802e-05 | 3.8147e-05 |   0.0 |  0.01
Modify  | 0          | 0          | 0          |   0.0 |  0.00
Other   |            | 0.003871   |            |       |  1.12

Nlocal:    84 ave 88 max 78 min
Histogram: 1 0 0 2 0 1 1 3 3 1
Nghost:    2610.17 ave 2634 max 2583 min
Histogram: 1 1 0 2 1 0 3 3 0 1
Neighs:    18633.5 ave 19293 max 17210 min
Histogram: 1 0 0 1 2 0 1 2 1 4

Total # of neighbors = 223602
Ave neighs/atom = 221.827
Neighbor list builds = 0
Dangerous builds = 0
  triclinic box = (0 0 0) to (23.3007 23.3007 23.3007) with tilt (-0.077661 0 0)
WARNING: Resetting reneighboring criteria during minimization (../min.cpp:168)
Ewald initialization ...
  G vector (1/distance) = 0.365055
  estimated absolute RMS force accuracy = 1.94166e-05
  estimated relative force accuracy = 1.34841e-06
  KSpace vectors: actual max1d max3d = 2081 10 4630
                  kxmax kymax kzmax  = 10 10 10
Memory usage per processor = 4.56171 Mbytes
Step Temp E_pair E_mol TotEng Press 
     316           10   -18273.198            0   -18271.896   -4391.4495 
     329           10   -18273.222            0    -18271.92   -4402.3213 
Loop time of 0.307248 on 12 procs for 13 steps with 1008 atoms

100.0% CPU use with 12 MPI tasks x no OpenMP threads

Minimization stats:
  Stopping criterion = linesearch alpha is zero
  Energy initial, next-to-last, final = 
        -18273.1978333     -18273.2215032     -18273.2215032
  Force two-norm initial, final = 0.825391 0.0944792
  Force max component initial, final = 0.0821939 0.0101711
  Final line search alpha, max atom move = 9.53674e-07 9.69994e-09
  Iterations, force evaluations = 13 100

MPI task timing breakdown:
Section |  min time  |  avg time  |  max time  |%varavg| %total
---------------------------------------------------------------
Pair    | 0.10241    | 0.11361    | 0.11924    |   1.4 | 36.98
Kspace  | 0.16437    | 0.16967    | 0.17387    |   0.8 | 55.22
Neigh   | 0          | 0          | 0          |   0.0 |  0.00
Comm    | 0.01519    | 0.020245   | 0.027199   |   2.5 |  6.59
Output  | 0          | 0          | 0          |   0.0 |  0.00
Modify  | 0          | 0          | 0          |   0.0 |  0.00
Other   |            | 0.003724   |            |       |  1.21

Nlocal:    84 ave 88 max 78 min
Histogram: 1 0 0 2 0 1 1 3 3 1
Nghost:    2610.17 ave 2634 max 2583 min
Histogram: 1 1 0 2 1 0 3 3 0 1
Neighs:    18635.3 ave 19290 max 17213 min
Histogram: 1 0 0 1 2 0 1 2 1 4

Total # of neighbors = 223624
Ave neighs/atom = 221.849
Neighbor list builds = 0
Dangerous builds = 0
  triclinic box = (0 0 0) to (23.3007 23.3007 23.3007) with tilt (-0.038842 0 0)
WARNING: Resetting reneighboring criteria during minimization (../min.cpp:168)
Ewald initialization ...
  G vector (1/distance) = 0.365055
  estimated absolute RMS force accuracy = 1.94166e-05
  estimated relative force accuracy = 1.34841e-06
  KSpace vectors: actual max1d max3d = 2082 10 4630
                  kxmax kymax kzmax  = 10 10 10
Memory usage per processor = 4.56171 Mbytes
Step Temp E_pair E_mol TotEng Press 
     329           10   -18273.266            0   -18271.965   -4394.4054 
     334           10   -18273.272            0    -18271.97   -4385.1206 
Loop time of 0.266187 on 12 procs for 5 steps with 1008 atoms

99.8% CPU use with 12 MPI tasks x no OpenMP threads

Minimization stats:
  Stopping criterion = linesearch alpha is zero
  Energy initial, next-to-last, final = 
        -18273.2661799     -18273.2719379     -18273.2719379
  Force two-norm initial, final = 0.412894 0.130161
  Force max component initial, final = 0.0410895 0.0216297
  Final line search alpha, max atom move = 4.76837e-07 1.03138e-08
  Iterations, force evaluations = 5 87

MPI task timing breakdown:
Section |  min time  |  avg time  |  max time  |%varavg| %total
---------------------------------------------------------------
Pair    | 0.089336   | 0.09871    | 0.10469    |   1.3 | 37.08
Kspace  | 0.14226    | 0.14813    | 0.15148    |   0.7 | 55.65
Neigh   | 0          | 0          | 0          |   0.0 |  0.00
Comm    | 0.01203    | 0.016779   | 0.022568   |   2.5 |  6.30
Output  | 0          | 0          | 0          |   0.0 |  0.00
Modify  | 0          | 0          | 0          |   0.0 |  0.00
Other   |            | 0.002565   |            |       |  0.96

Nlocal:    84 ave 88 max 78 min
Histogram: 1 0 0 2 0 1 1 3 3 1
Nghost:    2610.17 ave 2634 max 2583 min
Histogram: 1 1 0 2 1 0 3 3 0 1
Neighs:    18636.6 ave 19292 max 17213 min
Histogram: 1 0 0 1 2 0 1 2 1 4

Total # of neighbors = 223639
Ave neighs/atom = 221.864
Neighbor list builds = 0
Dangerous builds = 0
  triclinic box = (0 0 0) to (23.3007 23.3007 23.3007) with tilt (0 0 0)
WARNING: Resetting reneighboring criteria during minimization (../min.cpp:168)
Ewald initialization ...
  G vector (1/distance) = 0.365055
  estimated absolute RMS force accuracy = 1.94166e-05
  estimated relative force accuracy = 1.34841e-06
  KSpace vectors: actual max1d max3d = 2084 10 4630
                  kxmax kymax kzmax  = 10 10 10
Memory usage per processor = 4.56171 Mbytes
Step Temp E_pair E_mol TotEng Press 
     334           10   -18273.303            0   -18272.002    -4391.934 
     335           10   -18273.303            0   -18272.002    -4391.934 
Loop time of 0.0737738 on 12 procs for 1 steps with 1008 atoms

100.3% CPU use with 12 MPI tasks x no OpenMP threads

Minimization stats:
  Stopping criterion = linesearch alpha is zero
  Energy initial, next-to-last, final = 
        -18273.3034322     -18273.3034322     -18273.3034322
  Force two-norm initial, final = 0.00478835 0.00478835
  Force max component initial, final = 0.000373975 0.000373975
  Final line search alpha, max atom move = 0.000488281 1.82605e-07
  Iterations, force evaluations = 1 23

MPI task timing breakdown:
Section |  min time  |  avg time  |  max time  |%varavg| %total
---------------------------------------------------------------
Pair    | 0.024489   | 0.027041   | 0.028202   |   0.6 | 36.65
Kspace  | 0.039425   | 0.040594   | 0.041388   |   0.3 | 55.02
Neigh   | 0          | 0          | 0          |   0.0 |  0.00
Comm    | 0.0038197  | 0.0051179  | 0.0067267  |   1.2 |  6.94
Output  | 0          | 0          | 0          |   0.0 |  0.00
Modify  | 0          | 0          | 0          |   0.0 |  0.00
Other   |            | 0.001021   |            |       |  1.38

Nlocal:    84 ave 88 max 78 min
Histogram: 1 0 0 2 0 1 1 3 3 1
Nghost:    2610.17 ave 2634 max 2583 min
Histogram: 1 1 0 2 1 0 3 3 0 1
Neighs:    18634.9 ave 19288 max 17214 min
Histogram: 1 0 0 1 2 0 1 2 1 4

Total # of neighbors = 223619
Ave neighs/atom = 221.844
Neighbor list builds = 0
Dangerous builds = 0
  triclinic box = (0 0 0) to (23.3007 23.3007 23.3007) with tilt (0.038842 0 0)
WARNING: Resetting reneighboring criteria during minimization (../min.cpp:168)
Ewald initialization ...
  G vector (1/distance) = 0.365055
  estimated absolute RMS force accuracy = 1.94166e-05
  estimated relative force accuracy = 1.34841e-06
  KSpace vectors: actual max1d max3d = 2082 10 4630
                  kxmax kymax kzmax  = 10 10 10
Memory usage per processor = 4.56171 Mbytes
Step Temp E_pair E_mol TotEng Press 
     335           10   -18273.319            0   -18272.017   -4386.3197 
     340           10   -18273.324            0   -18272.022   -4385.7819 
Loop time of 0.159111 on 12 procs for 5 steps with 1008 atoms

99.7% CPU use with 12 MPI tasks x no OpenMP threads

Minimization stats:
  Stopping criterion = linesearch alpha is zero
  Energy initial, next-to-last, final = 
        -18273.3187165     -18273.3236861     -18273.3236861
  Force two-norm initial, final = 0.412691 0.134497
  Force max component initial, final = 0.0408496 0.0234815
  Final line search alpha, max atom move = 4.76837e-07 1.11969e-08
  Iterations, force evaluations = 5 51

MPI task timing breakdown:
Section |  min time  |  avg time  |  max time  |%varavg| %total
---------------------------------------------------------------
Pair    | 0.052516   | 0.058304   | 0.062555   |   1.1 | 36.64
Kspace  | 0.085045   | 0.088363   | 0.090671   |   0.5 | 55.54
Neigh   | 0          | 0          | 0          |   0.0 |  0.00
Comm    | 0.008491   | 0.010759   | 0.014911   |   1.7 |  6.76
Output  | 0          | 0          | 0          |   0.0 |  0.00
Modify  | 0          | 0          | 0          |   0.0 |  0.00
Other   |            | 0.001685   |            |       |  1.06

Nlocal:    84 ave 88 max 78 min
Histogram: 1 0 0 2 0 1 1 3 3 1
Nghost:    2610.17 ave 2634 max 2583 min
Histogram: 1 1 0 2 1 0 3 3 0 1
Neighs:    18633.7 ave 19287 max 17211 min
Histogram: 1 0 0 1 2 0 0 3 1 4

Total # of neighbors = 223604
Ave neighs/atom = 221.829
Neighbor list builds = 0
Dangerous builds = 0
  triclinic box = (0 0 0) to (23.3007 23.3007 23.3007) with tilt (0.077661 0 0)
WARNING: Resetting reneighboring criteria during minimization (../min.cpp:168)
Ewald initialization ...
  G vector (1/distance) = 0.365055
  estimated absolute RMS force accuracy = 1.94166e-05
  estimated relative force accuracy = 1.34841e-06
  KSpace vectors: actual max1d max3d = 2081 10 4630
                  kxmax kymax kzmax  = 10 10 10
Memory usage per processor = 4.56171 Mbytes
Step Temp E_pair E_mol TotEng Press 
     340           10   -18273.301            0   -18271.999   -4374.9731 
     348           10   -18273.324            0   -18272.022    -4375.439 
Loop time of 0.181526 on 12 procs for 8 steps with 1008 atoms

99.8% CPU use with 12 MPI tasks x no OpenMP threads

Minimization stats:
  Stopping criterion = linesearch alpha is zero
  Energy initial, next-to-last, final = 
        -18273.3011278     -18273.3240437     -18273.3240437
  Force two-norm initial, final = 0.825265 0.167299
  Force max component initial, final = 0.0816532 0.0135884
  Final line search alpha, max atom move = 2.38419e-07 3.23972e-09
  Iterations, force evaluations = 8 59

MPI task timing breakdown:
Section |  min time  |  avg time  |  max time  |%varavg| %total
---------------------------------------------------------------
Pair    | 0.060769   | 0.067323   | 0.07044    |   1.1 | 37.09
Kspace  | 0.097479   | 0.1002     | 0.10251    |   0.5 | 55.20
Neigh   | 0          | 0          | 0          |   0.0 |  0.00
Comm    | 0.009006   | 0.012028   | 0.016252   |   1.9 |  6.63
Output  | 0          | 0          | 0          |   0.0 |  0.00
Modify  | 0          | 0          | 0          |   0.0 |  0.00
Other   |            | 0.001975   |            |       |  1.09

Nlocal:    84 ave 88 max 78 min
Histogram: 1 0 0 2 0 1 1 3 3 1
Nghost:    2610.17 ave 2634 max 2583 min
Histogram: 1 1 0 2 1 0 3 3 0 1
Neighs:    18631.2 ave 19278 max 17207 min
Histogram: 1 0 0 1 2 0 0 3 1 4

Total # of neighbors = 223575
Ave neighs/atom = 221.801
Neighbor list builds = 0
Dangerous builds = 0
  triclinic box = (0 0 0) to (23.3007 23.3007 23.3007) with tilt (0.116503 0 0)
WARNING: Resetting reneighboring criteria during minimization (../min.cpp:168)
Ewald initialization ...
  G vector (1/distance) = 0.365055
  estimated absolute RMS force accuracy = 1.94166e-05
  estimated relative force accuracy = 1.34841e-06
  KSpace vectors: actual max1d max3d = 2079 10 4630
                  kxmax kymax kzmax  = 10 10 10
Memory usage per processor = 4.56171 Mbytes
Step Temp E_pair E_mol TotEng Press 
     348           10   -18273.258            0   -18271.956   -4359.5824 
     350           10   -18273.291            0    -18271.99   -4385.3786 
     357           10   -18273.308            0   -18272.007   -4355.8595 
Loop time of 0.188341 on 12 procs for 9 steps with 1008 atoms

99.9% CPU use with 12 MPI tasks x no OpenMP threads

Minimization stats:
  Stopping criterion = linesearch alpha is zero
  Energy initial, next-to-last, final = 
        -18273.2581309     -18273.3083616     -18273.3083616
  Force two-norm initial, final = 1.23816 0.215433
  Force max component initial, final = 0.122367 0.0186191
  Final line search alpha, max atom move = 2.38419e-07 4.43914e-09
  Iterations, force evaluations = 9 61

MPI task timing breakdown:
Section |  min time  |  avg time  |  max time  |%varavg| %total
---------------------------------------------------------------
Pair    | 0.062659   | 0.069475   | 0.073601   |   1.2 | 36.89
Kspace  | 0.10042    | 0.10378    | 0.10614    |   0.5 | 55.10
Neigh   | 0          | 0          | 0          |   0.0 |  0.00
Comm    | 0.0099623  | 0.012937   | 0.017482   |   1.9 |  6.87
Output  | 3.6001e-05 | 3.8664e-05 | 4.6015e-05 |   0.0 |  0.02
Modify  | 0          | 0          | 0          |   0.0 |  0.00
Other   |            | 0.002112   |            |       |  1.12

Nlocal:    84 ave 88 max 78 min
Histogram: 1 0 0 2 0 1 1 3 3 1
Nghost:    2610.17 ave 2634 max 2583 min
Histogram: 1 1 0 2 1 0 3 3 0 1
Neighs:    18630.9 ave 19280 max 17206 min
Histogram: 1 0 0 1 2 0 0 3 1 4

Total # of neighbors = 223571
Ave neighs/atom = 221.797
Neighbor list builds = 0
Dangerous builds = 0
  triclinic box = (0 0 0) to (23.3007 23.3007 23.3007) with tilt (0 -0.116503 0)
WARNING: Resetting reneighboring criteria during minimization (../min.cpp:168)
Ewald initialization ...
  G vector (1/distance) = 0.365055
  estimated absolute RMS force accuracy = 1.94166e-05
  estimated relative force accuracy = 1.34841e-06
  KSpace vectors: actual max1d max3d = 2079 10 4630
                  kxmax kymax kzmax  = 10 10 10
Memory usage per processor = 4.56171 Mbytes
Step Temp E_pair E_mol TotEng Press 
     357           10   -18273.217            0   -18271.915   -4317.0837 
     373           10   -18273.278            0   -18271.976   -4436.8259 
Loop time of 0.226496 on 12 procs for 16 steps with 1008 atoms

99.8% CPU use with 12 MPI tasks x no OpenMP threads

Minimization stats:
  Stopping criterion = linesearch alpha is zero
  Energy initial, next-to-last, final = 
        -18273.2168965     -18273.2775569     -18273.2775569
  Force two-norm initial, final = 1.25436 0.13826
  Force max component initial, final = 0.104756 0.0122884
  Final line search alpha, max atom move = 4.76837e-07 5.85957e-09
  Iterations, force evaluations = 16 73

MPI task timing breakdown:
Section |  min time  |  avg time  |  max time  |%varavg| %total
---------------------------------------------------------------
Pair    | 0.075478   | 0.083594   | 0.089039   |   1.3 | 36.91
Kspace  | 0.11993    | 0.12447    | 0.12752    |   0.7 | 54.95
Neigh   | 0          | 0          | 0          |   0.0 |  0.00
Comm    | 0.011719   | 0.015283   | 0.020454   |   2.2 |  6.75
Output  | 0          | 0          | 0          |   0.0 |  0.00
Modify  | 0          | 0          | 0          |   0.0 |  0.00
Other   |            | 0.003151   |            |       |  1.39

Nlocal:    84 ave 88 max 78 min
Histogram: 1 0 0 2 0 1 1 3 3 1
Nghost:    2610.17 ave 2634 max 2583 min
Histogram: 1 1 0 2 1 0 3 3 0 1
Neighs:    18631.1 ave 19293 max 17207 min
Histogram: 1 0 0 1 2 0 1 2 1 4

Total # of neighbors = 223573
Ave neighs/atom = 221.799
Neighbor list builds = 0
Dangerous builds = 0
  triclinic box = (0 0 0) to (23.3007 23.3007 23.3007) with tilt (0 -0.077661 0)
WARNING: Resetting reneighboring criteria during minimization (../min.cpp:168)
Ewald initialization ...
  G vector (1/distance) = 0.365055
  estimated absolute RMS force accuracy = 1.94166e-05
  estimated relative force accuracy = 1.34841e-06
  KSpace vectors: actual max1d max3d = 2081 10 4630
                  kxmax kymax kzmax  = 10 10 10
Memory usage per processor = 4.56171 Mbytes
Step Temp E_pair E_mol TotEng Press 
     373           10   -18273.273            0   -18271.972   -4346.9444 
     382           10     -18273.3            0   -18271.999    -4416.059 
Loop time of 0.182462 on 12 procs for 9 steps with 1008 atoms

100.1% CPU use with 12 MPI tasks x no OpenMP threads

Minimization stats:
  Stopping criterion = linesearch alpha is zero
  Energy initial, next-to-last, final = 
        -18273.2733619     -18273.3003076     -18273.3003076
  Force two-norm initial, final = 0.836223 0.154113
  Force max component initial, final = 0.0697159 0.015369
  Final line search alpha, max atom move = 4.76837e-07 7.32849e-09
  Iterations, force evaluations = 9 59

MPI task timing breakdown:
Section |  min time  |  avg time  |  max time  |%varavg| %total
---------------------------------------------------------------
Pair    | 0.060983   | 0.06732    | 0.071365   |   1.1 | 36.90
Kspace  | 0.097121   | 0.10113    | 0.1033     |   0.6 | 55.43
Neigh   | 0          | 0          | 0          |   0.0 |  0.00
Comm    | 0.0086262  | 0.011688   | 0.015848   |   1.9 |  6.41
Output  | 0          | 0          | 0          |   0.0 |  0.00
Modify  | 0          | 0          | 0          |   0.0 |  0.00
Other   |            | 0.00232    |            |       |  1.27

Nlocal:    84 ave 88 max 78 min
Histogram: 1 0 0 2 0 1 1 3 3 1
Nghost:    2610.17 ave 2634 max 2583 min
Histogram: 1 1 0 2 1 0 3 3 0 1
Neighs:    18631.8 ave 19299 max 17207 min
Histogram: 1 0 0 1 2 0 1 2 1 4

Total # of neighbors = 223582
Ave neighs/atom = 221.808
Neighbor list builds = 0
Dangerous builds = 0
  triclinic box = (0 0 0) to (23.3007 23.3007 23.3007) with tilt (0 -0.038842 0)
WARNING: Resetting reneighboring criteria during minimization (../min.cpp:168)
Ewald initialization ...
  G vector (1/distance) = 0.365055
  estimated absolute RMS force accuracy = 1.94166e-05
  estimated relative force accuracy = 1.34841e-06
  KSpace vectors: actual max1d max3d = 2082 10 4630
                  kxmax kymax kzmax  = 10 10 10
Memory usage per processor = 4.56171 Mbytes
Step Temp E_pair E_mol TotEng Press 
     382           10   -18273.302            0   -18272.001   -4371.8335 
     386           10   -18273.307            0   -18272.005    -4395.717 
Loop time of 0.150354 on 12 procs for 4 steps with 1008 atoms

100.0% CPU use with 12 MPI tasks x no OpenMP threads

Minimization stats:
  Stopping criterion = linesearch alpha is zero
  Energy initial, next-to-last, final = 
        -18273.3022366     -18273.3071484     -18273.3071484
  Force two-norm initial, final = 0.418304 0.156297
  Force max component initial, final = 0.0347843 0.0181467
  Final line search alpha, max atom move = 4.76837e-07 8.65304e-09
  Iterations, force evaluations = 4 49

MPI task timing breakdown:
Section |  min time  |  avg time  |  max time  |%varavg| %total
---------------------------------------------------------------
Pair    | 0.050673   | 0.056182   | 0.059136   |   1.0 | 37.37
Kspace  | 0.081321   | 0.083652   | 0.085631   |   0.5 | 55.64
Neigh   | 0          | 0          | 0          |   0.0 |  0.00
Comm    | 0.0070062  | 0.0092435  | 0.013031   |   1.7 |  6.15
Output  | 0          | 0          | 0          |   0.0 |  0.00
Modify  | 0          | 0          | 0          |   0.0 |  0.00
Other   |            | 0.001275   |            |       |  0.85

Nlocal:    84 ave 88 max 78 min
Histogram: 1 0 0 2 0 1 1 3 3 1
Nghost:    2610.17 ave 2634 max 2583 min
Histogram: 1 1 0 2 1 0 3 3 0 1
Neighs:    18632.1 ave 19292 max 17210 min
Histogram: 1 0 0 1 2 0 1 2 1 4

Total # of neighbors = 223585
Ave neighs/atom = 221.811
Neighbor list builds = 0
Dangerous builds = 0
  triclinic box = (0 0 0) to (23.3007 23.3007 23.3007) with tilt (0 0 0)
WARNING: Resetting reneighboring criteria during minimization (../min.cpp:168)
Ewald initialization ...
  G vector (1/distance) = 0.365055
  estimated absolute RMS force accuracy = 1.94166e-05
  estimated relative force accuracy = 1.34841e-06
  KSpace vectors: actual max1d max3d = 2084 10 4630
                  kxmax kymax kzmax  = 10 10 10
Memory usage per processor = 4.56171 Mbytes
Step Temp E_pair E_mol TotEng Press 
     386           10   -18273.303            0   -18272.002    -4391.934 
     387           10   -18273.303            0   -18272.002    -4391.934 
Loop time of 0.0731989 on 12 procs for 1 steps with 1008 atoms

100.1% CPU use with 12 MPI tasks x no OpenMP threads

Minimization stats:
  Stopping criterion = linesearch alpha is zero
  Energy initial, next-to-last, final = 
        -18273.3034322     -18273.3034322     -18273.3034322
  Force two-norm initial, final = 0.00478835 0.00478835
  Force max component initial, final = 0.000373975 0.000373975
  Final line search alpha, max atom move = 0.000488281 1.82605e-07
  Iterations, force evaluations = 1 23

MPI task timing breakdown:
Section |  min time  |  avg time  |  max time  |%varavg| %total
---------------------------------------------------------------
Pair    | 0.024529   | 0.027062   | 0.028214   |   0.7 | 36.97
Kspace  | 0.039276   | 0.040297   | 0.041203   |   0.3 | 55.05
Neigh   | 0          | 0          | 0          |   0.0 |  0.00
Comm    | 0.0038567  | 0.0050256  | 0.0067167  |   1.1 |  6.87
Output  | 0          | 0          | 0          |   0.0 |  0.00
Modify  | 0          | 0          | 0          |   0.0 |  0.00
Other   |            | 0.0008142  |            |       |  1.11

Nlocal:    84 ave 88 max 78 min
Histogram: 1 0 0 2 0 1 1 3 3 1
Nghost:    2610.17 ave 2634 max 2583 min
Histogram: 1 1 0 2 1 0 3 3 0 1
Neighs:    18634.9 ave 19288 max 17214 min
Histogram: 1 0 0 1 2 0 1 2 1 4

Total # of neighbors = 223619
Ave neighs/atom = 221.844
Neighbor list builds = 0
Dangerous builds = 0
  triclinic box = (0 0 0) to (23.3007 23.3007 23.3007) with tilt (0 0.038842 0)
WARNING: Resetting reneighboring criteria during minimization (../min.cpp:168)
Ewald initialization ...
  G vector (1/distance) = 0.365055
  estimated absolute RMS force accuracy = 1.94166e-05
  estimated relative force accuracy = 1.34841e-06
  KSpace vectors: actual max1d max3d = 2082 10 4630
                  kxmax kymax kzmax  = 10 10 10
Memory usage per processor = 4.56171 Mbytes
Step Temp E_pair E_mol TotEng Press 
     387           10    -18273.28            0   -18271.979   -4407.8045 
     399           10   -18273.289            0   -18271.987   -4364.7804 
Loop time of 0.411338 on 12 procs for 12 steps with 1008 atoms

99.8% CPU use with 12 MPI tasks x no OpenMP threads

Minimization stats:
  Stopping criterion = linesearch alpha is zero
  Energy initial, next-to-last, final = 
        -18273.2801768     -18273.2885961     -18273.2885961
  Force two-norm initial, final = 0.418312 0.0602562
  Force max component initial, final = 0.0348686 0.0061812
  Final line search alpha, max atom move = 1.90735e-06 1.17897e-08
  Iterations, force evaluations = 12 135

MPI task timing breakdown:
Section |  min time  |  avg time  |  max time  |%varavg| %total
---------------------------------------------------------------
Pair    | 0.13767    | 0.15232    | 0.15992    |   1.6 | 37.03
Kspace  | 0.22125    | 0.22783    | 0.23375    |   0.8 | 55.39
Neigh   | 0          | 0          | 0          |   0.0 |  0.00
Comm    | 0.019625   | 0.026885   | 0.035791   |   2.9 |  6.54
Output  | 0          | 0          | 0          |   0.0 |  0.00
Modify  | 0          | 0          | 0          |   0.0 |  0.00
Other   |            | 0.004297   |            |       |  1.04

Nlocal:    84 ave 88 max 78 min
Histogram: 1 0 0 2 0 1 1 3 3 1
Nghost:    2610.17 ave 2634 max 2583 min
Histogram: 1 1 0 2 1 0 3 3 0 1
Neighs:    18635.7 ave 19281 max 17220 min
Histogram: 1 0 0 1 2 0 0 3 1 4

Total # of neighbors = 223628
Ave neighs/atom = 221.853
Neighbor list builds = 0
Dangerous builds = 0
  triclinic box = (0 0 0) to (23.3007 23.3007 23.3007) with tilt (0 0.077661 0)
WARNING: Resetting reneighboring criteria during minimization (../min.cpp:168)
Ewald initialization ...
  G vector (1/distance) = 0.365055
  estimated absolute RMS force accuracy = 1.94166e-05
  estimated relative force accuracy = 1.34841e-06
  KSpace vectors: actual max1d max3d = 2081 10 4630
                  kxmax kymax kzmax  = 10 10 10
Memory usage per processor = 4.56171 Mbytes
Step Temp E_pair E_mol TotEng Press 
     399           10   -18273.228            0   -18271.927   -4418.6606 
     400           10   -18273.239            0   -18271.937   -4415.9162 
     412           10   -18273.258            0   -18271.956   -4346.6973 
Loop time of 0.200601 on 12 procs for 13 steps with 1008 atoms

99.8% CPU use with 12 MPI tasks x no OpenMP threads

Minimization stats:
  Stopping criterion = linesearch alpha is zero
  Energy initial, next-to-last, final = 
        -18273.2284404     -18273.2576027     -18273.2576027
  Force two-norm initial, final = 0.83641 0.107813
  Force max component initial, final = 0.0695527 0.0090304
  Final line search alpha, max atom move = 9.53674e-07 8.61206e-09
  Iterations, force evaluations = 13 65

MPI task timing breakdown:
Section |  min time  |  avg time  |  max time  |%varavg| %total
---------------------------------------------------------------
Pair    | 0.067042   | 0.074151   | 0.078104   |   1.1 | 36.96
Kspace  | 0.10744    | 0.11124    | 0.11377    |   0.6 | 55.45
Neigh   | 0          | 0          | 0          |   0.0 |  0.00
Comm    | 0.0096042  | 0.012903   | 0.017508   |   2.0 |  6.43
Output  | 3.4809e-05 | 3.6617e-05 | 4.6968e-05 |   0.1 |  0.02
Modify  | 0          | 0          | 0          |   0.0 |  0.00
Other   |            | 0.00227    |            |       |  1.13

Nlocal:    84 ave 88 max 78 min
Histogram: 1 0 0 2 0 1 1 3 3 1
Nghost:    2610.17 ave 2634 max 2583 min
Histogram: 1 1 0 2 1 0 3 3 0 1
Neighs:    18635 ave 19280 max 17219 min
Histogram: 1 0 0 1 2 0 1 2 1 4

Total # of neighbors = 223620
Ave neighs/atom = 221.845
Neighbor list builds = 0
Dangerous builds = 0
  triclinic box = (0 0 0) to (23.3007 23.3007 23.3007) with tilt (0 0.116503 0)
WARNING: Resetting reneighboring criteria during minimization (../min.cpp:168)
Ewald initialization ...
  G vector (1/distance) = 0.365055
  estimated absolute RMS force accuracy = 1.94166e-05
  estimated relative force accuracy = 1.34841e-06
  KSpace vectors: actual max1d max3d = 2079 10 4630
                  kxmax kymax kzmax  = 10 10 10
Memory usage per processor = 4.56171 Mbytes
Step Temp E_pair E_mol TotEng Press 
     412           10   -18273.146            0   -18271.844   -4423.8724 
     434           10   -18273.212            0    -18271.91   -4310.8731 
Loop time of 0.255513 on 12 procs for 22 steps with 1008 atoms

99.9% CPU use with 12 MPI tasks x no OpenMP threads

Minimization stats:
  Stopping criterion = linesearch alpha is zero
  Energy initial, next-to-last, final = 
        -18273.1458851     -18273.2116699     -18273.2116699
  Force two-norm initial, final = 1.25489 0.101546
  Force max component initial, final = 0.104174 0.00931857
  Final line search alpha, max atom move = 9.53674e-07 8.88688e-09
  Iterations, force evaluations = 22 83

MPI task timing breakdown:
Section |  min time  |  avg time  |  max time  |%varavg| %total
---------------------------------------------------------------
Pair    | 0.085413   | 0.09439    | 0.099232   |   1.3 | 36.94
Kspace  | 0.13678    | 0.1412     | 0.14433    |   0.6 | 55.26
Neigh   | 0          | 0          | 0          |   0.0 |  0.00
Comm    | 0.01261    | 0.01686    | 0.022832   |   2.2 |  6.60
Output  | 0          | 0          | 0          |   0.0 |  0.00
Modify  | 0          | 0          | 0          |   0.0 |  0.00
Other   |            | 0.003063   |            |       |  1.20

Nlocal:    84 ave 88 max 78 min
Histogram: 1 0 0 2 0 1 1 3 3 1
Nghost:    2610.17 ave 2634 max 2583 min
Histogram: 1 1 0 2 1 0 3 3 0 1
Neighs:    18632.7 ave 19278 max 17206 min
Histogram: 1 0 0 1 2 0 0 3 1 4

Total # of neighbors = 223592
Ave neighs/atom = 221.817
Neighbor list builds = 0
Dangerous builds = 0
  triclinic box = (0 0 0) to (23.3007 23.3007 23.3007) with tilt (0 0 -0.116503)
WARNING: Resetting reneighboring criteria during minimization (../min.cpp:168)
Ewald initialization ...
  G vector (1/distance) = 0.365055
  estimated absolute RMS force accuracy = 1.94166e-05
  estimated relative force accuracy = 1.34841e-06
  KSpace vectors: actual max1d max3d = 2079 10 4630
                  kxmax kymax kzmax  = 10 10 10
Memory usage per processor = 4.56171 Mbytes
Step Temp E_pair E_mol TotEng Press 
     434           10   -18273.281            0   -18271.979    -4425.078 
     450           10   -18273.338            0   -18272.036   -4271.7947 
     452           10   -18273.339            0   -18272.037   -4272.6902 
Loop time of 0.230302 on 12 procs for 18 steps with 1008 atoms

99.8% CPU use with 12 MPI tasks x no OpenMP threads

Minimization stats:
  Stopping criterion = linesearch alpha is zero
  Energy initial, next-to-last, final = 
        -18273.2809561     -18273.3386084     -18273.3386084
  Force two-norm initial, final = 1.24829 0.108393
  Force max component initial, final = 0.113795 0.0141529
  Final line search alpha, max atom move = 9.53674e-07 1.34973e-08
  Iterations, force evaluations = 18 75

MPI task timing breakdown:
Section |  min time  |  avg time  |  max time  |%varavg| %total
---------------------------------------------------------------
Pair    | 0.076993   | 0.085253   | 0.090276   |   1.2 | 37.02
Kspace  | 0.12378    | 0.12749    | 0.12997    |   0.5 | 55.36
Neigh   | 0          | 0          | 0          |   0.0 |  0.00
Comm    | 0.011586   | 0.014969   | 0.020624   |   2.2 |  6.50
Output  | 4.5061e-05 | 5.0565e-05 | 5.9128e-05 |   0.0 |  0.02
Modify  | 0          | 0          | 0          |   0.0 |  0.00
Other   |            | 0.002543   |            |       |  1.10

Nlocal:    84 ave 88 max 78 min
Histogram: 1 0 0 2 0 1 1 3 3 1
Nghost:    2610.17 ave 2634 max 2583 min
Histogram: 1 1 0 2 1 0 3 3 0 1
Neighs:    18634.2 ave 19285 max 17198 min
Histogram: 1 0 0 1 2 0 0 3 1 4

Total # of neighbors = 223611
Ave neighs/atom = 221.836
Neighbor list builds = 0
Dangerous builds = 0
  triclinic box = (0 0 0) to (23.3007 23.3007 23.3007) with tilt (0 0 -0.077661)
WARNING: Resetting reneighboring criteria during minimization (../min.cpp:168)
Ewald initialization ...
  G vector (1/distance) = 0.365055
  estimated absolute RMS force accuracy = 1.94166e-05
  estimated relative force accuracy = 1.34841e-06
  KSpace vectors: actual max1d max3d = 2081 10 4630
                  kxmax kymax kzmax  = 10 10 10
Memory usage per processor = 4.56171 Mbytes
Step Temp E_pair E_mol TotEng Press 
     452           10   -18273.314            0   -18272.012   -4418.0357 
     470           10   -18273.341            0    -18272.04   -4309.9461 
Loop time of 0.339496 on 12 procs for 18 steps with 1008 atoms

99.8% CPU use with 12 MPI tasks x no OpenMP threads

Minimization stats:
  Stopping criterion = linesearch alpha is zero
  Energy initial, next-to-last, final = 
         -18273.313583     -18273.3411839     -18273.3411839
  Force two-norm initial, final = 0.832198 0.0714634
  Force max component initial, final = 0.0759987 0.00908812
  Final line search alpha, max atom move = 1.90735e-06 1.73342e-08
  Iterations, force evaluations = 18 111

MPI task timing breakdown:
Section |  min time  |  avg time  |  max time  |%varavg| %total
---------------------------------------------------------------
Pair    | 0.11289    | 0.1255     | 0.13253    |   1.5 | 36.97
Kspace  | 0.18194    | 0.1879     | 0.19251    |   0.8 | 55.35
Neigh   | 0          | 0          | 0          |   0.0 |  0.00
Comm    | 0.016877   | 0.02228    | 0.030321   |   2.6 |  6.56
Output  | 0          | 0          | 0          |   0.0 |  0.00
Modify  | 0          | 0          | 0          |   0.0 |  0.00
Other   |            | 0.003818   |            |       |  1.12

Nlocal:    84 ave 88 max 78 min
Histogram: 1 0 0 2 0 1 1 3 3 1
Nghost:    2610.17 ave 2634 max 2583 min
Histogram: 1 1 0 2 1 0 3 3 0 1
Neighs:    18634.1 ave 19283 max 17204 min
Histogram: 1 0 0 1 2 0 0 3 1 4

Total # of neighbors = 223609
Ave neighs/atom = 221.834
Neighbor list builds = 0
Dangerous builds = 0
  triclinic box = (0 0 0) to (23.3007 23.3007 23.3007) with tilt (0 0 -0.038842)
WARNING: Resetting reneighboring criteria during minimization (../min.cpp:168)
Ewald initialization ...
  G vector (1/distance) = 0.365055
  estimated absolute RMS force accuracy = 1.94166e-05
  estimated relative force accuracy = 1.34841e-06
  KSpace vectors: actual max1d max3d = 2082 10 4630
                  kxmax kymax kzmax  = 10 10 10
Memory usage per processor = 4.56171 Mbytes
Step Temp E_pair E_mol TotEng Press 
[...]
        -18273.2251413      -18273.232212      -18273.232212
  Force two-norm initial, final = 0.418219 0.113008
  Force max component initial, final = 0.0387212 0.0095143
  Final line search alpha, max atom move = 9.53674e-07 9.07354e-09
  Iterations, force evaluations = 6 51

MPI task timing breakdown:
Section |  min time  |  avg time  |  max time  |%varavg| %total
---------------------------------------------------------------
Pair    | 0.050945   | 0.0572     | 0.059754   |   1.0 | 36.81
Kspace  | 0.083883   | 0.085999   | 0.087716   |   0.5 | 55.35
Neigh   | 0          | 0          | 0          |   0.0 |  0.00
Comm    | 0.0079565  | 0.01054    | 0.014854   |   1.8 |  6.78
Output  | 0          | 0          | 0          |   0.0 |  0.00
Modify  | 0          | 0          | 0          |   0.0 |  0.00
Other   |            | 0.001637   |            |       |  1.05

Nlocal:    84 ave 89 max 78 min
Histogram: 1 0 1 2 0 3 1 2 1 1
Nghost:    2608.42 ave 2634 max 2576 min
Histogram: 1 1 0 2 1 0 2 3 1 1
Neighs:    18634 ave 19478 max 17210 min
Histogram: 1 0 0 2 1 0 3 1 2 2

Total # of neighbors = 223608
Ave neighs/atom = 221.833
Neighbor list builds = 0
Dangerous builds = 0
  triclinic box = (0 0 0) to (23.3007 23.3007 23.3007) with tilt (0 0.077661 0)
WARNING: Resetting reneighboring criteria during minimization (../min.cpp:168)
Ewald initialization ...
  G vector (1/distance) = 0.365055
  estimated absolute RMS force accuracy = 1.94166e-05
  estimated relative force accuracy = 1.34841e-06
  KSpace vectors: actual max1d max3d = 2081 10 4630
                  kxmax kymax kzmax  = 10 10 10
Memory usage per processor = 4.56171 Mbytes
Step Temp E_pair E_mol TotEng Press 
     944           10   -18273.183            0   -18271.882   -4994.7069 
     950           10   -18273.206            0   -18271.904   -4934.6193 
     963           10   -18273.213            0   -18271.911   -4909.4664 
Loop time of 0.231176 on 12 procs for 19 steps with 1008 atoms

99.9% CPU use with 12 MPI tasks x no OpenMP threads

Minimization stats:
  Stopping criterion = linesearch alpha is zero
  Energy initial, next-to-last, final = 
        -18273.1831981     -18273.2128532     -18273.2128532
  Force two-norm initial, final = 0.836282 0.0758971
  Force max component initial, final = 0.0772863 0.00607696
  Final line search alpha, max atom move = 1.90735e-06 1.15909e-08
  Iterations, force evaluations = 19 77

MPI task timing breakdown:
Section |  min time  |  avg time  |  max time  |%varavg| %total
---------------------------------------------------------------
Pair    | 0.077276   | 0.085675   | 0.089854   |   1.3 | 37.06
Kspace  | 0.12429    | 0.12773    | 0.13049    |   0.6 | 55.25
Neigh   | 0          | 0          | 0          |   0.0 |  0.00
Comm    | 0.010751   | 0.015057   | 0.021024   |   2.3 |  6.51
Output  | 3.5048e-05 | 3.7531e-05 | 4.8876e-05 |   0.1 |  0.02
Modify  | 0          | 0          | 0          |   0.0 |  0.00
Other   |            | 0.002679   |            |       |  1.16

Nlocal:    84 ave 89 max 78 min
Histogram: 1 0 1 2 0 3 1 2 1 1
Nghost:    2608.42 ave 2634 max 2576 min
Histogram: 1 1 0 2 1 0 2 3 1 1
Neighs:    18633.9 ave 19480 max 17210 min
Histogram: 1 0 0 2 1 0 3 1 2 2

Total # of neighbors = 223607
Ave neighs/atom = 221.832
Neighbor list builds = 0
Dangerous builds = 0
  triclinic box = (0 0 0) to (23.3007 23.3007 23.3007) with tilt (0 0.116503 0)
WARNING: Resetting reneighboring criteria during minimization (../min.cpp:168)
Ewald initialization ...
  G vector (1/distance) = 0.365055
  estimated absolute RMS force accuracy = 1.94166e-05
  estimated relative force accuracy = 1.34841e-06
  KSpace vectors: actual max1d max3d = 2079 10 4630
                  kxmax kymax kzmax  = 10 10 10
Memory usage per processor = 4.56171 Mbytes
Step Temp E_pair E_mol TotEng Press 
     963           10   -18273.114            0   -18271.812   -4999.0369 
     972           10    -18273.17            0   -18271.869   -4896.5684 
Loop time of 0.188768 on 12 procs for 9 steps with 1008 atoms

100.0% CPU use with 12 MPI tasks x no OpenMP threads

Minimization stats:
  Stopping criterion = linesearch alpha is zero
  Energy initial, next-to-last, final = 
        -18273.1138645     -18273.1703308     -18273.1703308
  Force two-norm initial, final = 1.25473 0.243481
  Force max component initial, final = 0.115807 0.0343675
  Final line search alpha, max atom move = 1.19209e-07 4.09692e-09
  Iterations, force evaluations = 9 63

MPI task timing breakdown:
Section |  min time  |  avg time  |  max time  |%varavg| %total
---------------------------------------------------------------
Pair    | 0.062303   | 0.069848   | 0.074173   |   1.2 | 37.00
Kspace  | 0.10163    | 0.10554    | 0.1082     |   0.6 | 55.91
Neigh   | 0          | 0          | 0          |   0.0 |  0.00
Comm    | 0.0081382  | 0.011642   | 0.017156   |   2.2 |  6.17
Output  | 0          | 0          | 0          |   0.0 |  0.00
Modify  | 0          | 0          | 0          |   0.0 |  0.00
Other   |            | 0.001736   |            |       |  0.92

Nlocal:    84 ave 89 max 78 min
Histogram: 1 0 1 2 0 3 1 2 1 1
Nghost:    2608.42 ave 2634 max 2576 min
Histogram: 1 1 0 2 1 0 2 3 1 1
Neighs:    18634.7 ave 19479 max 17210 min
Histogram: 1 0 0 2 1 0 3 1 2 2

Total # of neighbors = 223616
Ave neighs/atom = 221.841
Neighbor list builds = 0
Dangerous builds = 0
  triclinic box = (0 0 0) to (23.3007 23.3007 23.3007) with tilt (0 0 -0.116503)
WARNING: Resetting reneighboring criteria during minimization (../min.cpp:168)
Ewald initialization ...
  G vector (1/distance) = 0.365055
  estimated absolute RMS force accuracy = 1.94166e-05
  estimated relative force accuracy = 1.34841e-06
  KSpace vectors: actual max1d max3d = 2079 10 4630
                  kxmax kymax kzmax  = 10 10 10
Memory usage per processor = 4.56171 Mbytes
Step Temp E_pair E_mol TotEng Press 
     972           10   -18273.258            0   -18271.956   -4998.2555 
     982           10   -18273.314            0   -18272.013    -4815.218 
Loop time of 0.19061 on 12 procs for 10 steps with 1008 atoms

100.2% CPU use with 12 MPI tasks x no OpenMP threads

Minimization stats:
  Stopping criterion = linesearch alpha is zero
  Energy initial, next-to-last, final = 
        -18273.2578503     -18273.3142547     -18273.3142547
  Force two-norm initial, final = 1.25198 0.219272
  Force max component initial, final = 0.119661 0.0374238
  Final line search alpha, max atom move = 2.38419e-07 8.92253e-09
  Iterations, force evaluations = 10 63

MPI task timing breakdown:
Section |  min time  |  avg time  |  max time  |%varavg| %total
---------------------------------------------------------------
Pair    | 0.062431   | 0.070139   | 0.07446    |   1.2 | 36.80
Kspace  | 0.10197    | 0.10531    | 0.10803    |   0.6 | 55.25
Neigh   | 0          | 0          | 0          |   0.0 |  0.00
Comm    | 0.0093808  | 0.012747   | 0.017681   |   1.9 |  6.69
Output  | 0          | 0          | 0          |   0.0 |  0.00
Modify  | 0          | 0          | 0          |   0.0 |  0.00
Other   |            | 0.00241    |            |       |  1.26

Nlocal:    84 ave 89 max 78 min
Histogram: 1 0 1 2 0 3 1 2 1 1
Nghost:    2608.42 ave 2634 max 2576 min
Histogram: 1 1 0 2 1 0 2 3 1 1
Neighs:    18634.7 ave 19493 max 17210 min
Histogram: 1 0 0 2 1 0 3 1 2 2

Total # of neighbors = 223616
Ave neighs/atom = 221.841
Neighbor list builds = 0
Dangerous builds = 0
  triclinic box = (0 0 0) to (23.3007 23.3007 23.3007) with tilt (0 0 -0.077661)
WARNING: Resetting reneighboring criteria during minimization (../min.cpp:168)
Ewald initialization ...
  G vector (1/distance) = 0.365055
  estimated absolute RMS force accuracy = 1.94166e-05
  estimated relative force accuracy = 1.34841e-06
  KSpace vectors: actual max1d max3d = 2081 10 4630
                  kxmax kymax kzmax  = 10 10 10
Memory usage per processor = 4.56171 Mbytes
Step Temp E_pair E_mol TotEng Press 
     982           10   -18273.279            0   -18271.978   -4993.9465 
     993           10   -18273.304            0   -18272.003   -4859.5949 
Loop time of 0.192082 on 12 procs for 11 steps with 1008 atoms

99.9% CPU use with 12 MPI tasks x no OpenMP threads

Minimization stats:
  Stopping criterion = linesearch alpha is zero
  Energy initial, next-to-last, final = 
        -18273.2792791     -18273.3043352     -18273.3043352
  Force two-norm initial, final = 0.834701 0.125729
  Force max component initial, final = 0.0798664 0.0181547
  Final line search alpha, max atom move = 4.76837e-07 8.65684e-09
  Iterations, force evaluations = 11 63

MPI task timing breakdown:
Section |  min time  |  avg time  |  max time  |%varavg| %total
---------------------------------------------------------------
Pair    | 0.063345   | 0.070608   | 0.073925   |   1.1 | 36.76
Kspace  | 0.10417    | 0.10677    | 0.10931    |   0.5 | 55.59
Neigh   | 0          | 0          | 0          |   0.0 |  0.00
Comm    | 0.0092251  | 0.01252    | 0.017683   |   1.9 |  6.52
Output  | 0          | 0          | 0          |   0.0 |  0.00
Modify  | 0          | 0          | 0          |   0.0 |  0.00
Other   |            | 0.002183   |            |       |  1.14

Nlocal:    84 ave 89 max 78 min
Histogram: 1 0 1 2 0 3 1 2 1 1
Nghost:    2608.42 ave 2634 max 2576 min
Histogram: 1 1 0 2 1 0 2 3 1 1
Neighs:    18634.6 ave 19495 max 17212 min
Histogram: 1 0 0 2 1 0 3 1 2 2

Total # of neighbors = 223615
Ave neighs/atom = 221.84
Neighbor list builds = 0
Dangerous builds = 0
  triclinic box = (0 0 0) to (23.3007 23.3007 23.3007) with tilt (0 0 -0.038842)
WARNING: Resetting reneighboring criteria during minimization (../min.cpp:168)
Ewald initialization ...
  G vector (1/distance) = 0.365055
  estimated absolute RMS force accuracy = 1.94166e-05
  estimated relative force accuracy = 1.34841e-06
  KSpace vectors: actual max1d max3d = 2082 10 4630
                  kxmax kymax kzmax  = 10 10 10
Memory usage per processor = 4.56171 Mbytes
Step Temp E_pair E_mol TotEng Press 
     993           10   -18273.272            0    -18271.97   -4984.7707 
    1000           10   -18273.278            0   -18271.976   -4917.9674 
    1002           10   -18273.278            0   -18271.977   -4914.4041 
Loop time of 0.172615 on 12 procs for 9 steps with 1008 atoms

99.9% CPU use with 12 MPI tasks x no OpenMP threads

Minimization stats:
  Stopping criterion = linesearch alpha is zero
  Energy initial, next-to-last, final = 
        -18273.2719671     -18273.2782046     -18273.2782046
  Force two-norm initial, final = 0.417591 0.0811546
  Force max component initial, final = 0.0399821 0.0124129
  Final line search alpha, max atom move = 9.53674e-07 1.18378e-08
  Iterations, force evaluations = 9 57

MPI task timing breakdown:
Section |  min time  |  avg time  |  max time  |%varavg| %total
---------------------------------------------------------------
Pair    | 0.057249   | 0.063814   | 0.06672    |   1.1 | 36.97
Kspace  | 0.093457   | 0.095691   | 0.098096   |   0.5 | 55.44
Neigh   | 0          | 0          | 0          |   0.0 |  0.00
Comm    | 0.0078998  | 0.011042   | 0.01548    |   1.9 |  6.40
Output  | 3.5048e-05 | 3.6597e-05 | 4.5061e-05 |   0.0 |  0.02
Modify  | 0          | 0          | 0          |   0.0 |  0.00
Other   |            | 0.00203    |            |       |  1.18

Nlocal:    84 ave 89 max 78 min
Histogram: 1 0 1 2 0 3 1 2 1 1
Nghost:    2608.42 ave 2634 max 2576 min
Histogram: 1 1 0 2 1 0 2 3 1 1
Neighs:    18635.9 ave 19491 max 17213 min
Histogram: 1 0 0 2 1 0 3 1 2 2

Total # of neighbors = 223631
Ave neighs/atom = 221.856
Neighbor list builds = 0
Dangerous builds = 0
  triclinic box = (0 0 0) to (23.3007 23.3007 23.3007) with tilt (0 0 0)
WARNING: Resetting reneighboring criteria during minimization (../min.cpp:168)
Ewald initialization ...
  G vector (1/distance) = 0.365055
  estimated absolute RMS force accuracy = 1.94166e-05
  estimated relative force accuracy = 1.34841e-06
  KSpace vectors: actual max1d max3d = 2084 10 4630
                  kxmax kymax kzmax  = 10 10 10
Memory usage per processor = 4.56171 Mbytes
Step Temp E_pair E_mol TotEng Press 
    1002           10   -18273.237            0   -18271.935   -4970.9679 
    1005           10   -18273.237            0   -18271.935   -4966.6262 
Loop time of 0.136948 on 12 procs for 3 steps with 1008 atoms

99.9% CPU use with 12 MPI tasks x no OpenMP threads

Minimization stats:
  Stopping criterion = linesearch alpha is zero
  Energy initial, next-to-last, final = 
        -18273.2370376     -18273.2370713     -18273.2370713
  Force two-norm initial, final = 0.00482243 0.00280534
  Force max component initial, final = 0.000382203 0.00042158
  Final line search alpha, max atom move = 0.000976562 4.11699e-07
  Iterations, force evaluations = 3 45

MPI task timing breakdown:
Section |  min time  |  avg time  |  max time  |%varavg| %total
---------------------------------------------------------------
Pair    | 0.044832   | 0.050408   | 0.053343   |   1.0 | 36.81
Kspace  | 0.073303   | 0.076101   | 0.078278   |   0.5 | 55.57
Neigh   | 0          | 0          | 0          |   0.0 |  0.00
Comm    | 0.0068071  | 0.0091509  | 0.012796   |   1.6 |  6.68
Output  | 0          | 0          | 0          |   0.0 |  0.00
Modify  | 0          | 0          | 0          |   0.0 |  0.00
Other   |            | 0.001289   |            |       |  0.94

Nlocal:    84 ave 89 max 78 min
Histogram: 1 0 1 2 0 3 1 2 1 1
Nghost:    2608.42 ave 2634 max 2576 min
Histogram: 1 1 0 2 1 0 2 3 1 1
Neighs:    18635 ave 19477 max 17215 min
Histogram: 1 0 0 2 1 0 3 1 2 2

Total # of neighbors = 223620
Ave neighs/atom = 221.845
Neighbor list builds = 0
Dangerous builds = 0
  triclinic box = (0 0 0) to (23.3007 23.3007 23.3007) with tilt (0 0 0.038842)
WARNING: Resetting reneighboring criteria during minimization (../min.cpp:168)
Ewald initialization ...
  G vector (1/distance) = 0.365055
  estimated absolute RMS force accuracy = 1.94166e-05
  estimated relative force accuracy = 1.34841e-06
  KSpace vectors: actual max1d max3d = 2082 10 4630
                  kxmax kymax kzmax  = 10 10 10
Memory usage per processor = 4.56171 Mbytes
Step Temp E_pair E_mol TotEng Press 
    1005           10   -18273.176            0   -18271.875   -4952.9334 
    1015           10   -18273.183            0   -18271.882   -5009.0208 
Loop time of 0.170073 on 12 procs for 10 steps with 1008 atoms

99.7% CPU use with 12 MPI tasks x no OpenMP threads

Minimization stats:
  Stopping criterion = linesearch alpha is zero
  Energy initial, next-to-last, final = 
        -18273.1763556     -18273.1832047     -18273.1832047
  Force two-norm initial, final = 0.417327 0.0728077
  Force max component initial, final = 0.0401871 0.0121971
  Final line search alpha, max atom move = 1.90735e-06 2.32641e-08
  Iterations, force evaluations = 10 57

MPI task timing breakdown:
Section |  min time  |  avg time  |  max time  |%varavg| %total
---------------------------------------------------------------
Pair    | 0.056586   | 0.063264   | 0.066605   |   1.1 | 37.20
Kspace  | 0.091723   | 0.094575   | 0.097213   |   0.6 | 55.61
Neigh   | 0          | 0          | 0          |   0.0 |  0.00
Comm    | 0.0072775  | 0.010399   | 0.014848   |   1.9 |  6.11
Output  | 0          | 0          | 0          |   0.0 |  0.00
Modify  | 0          | 0          | 0          |   0.0 |  0.00
Other   |            | 0.001836   |            |       |  1.08

Nlocal:    84 ave 89 max 78 min
Histogram: 1 0 1 2 0 3 1 2 1 1
Nghost:    2608.42 ave 2634 max 2576 min
Histogram: 1 1 0 2 1 0 2 3 1 1
Neighs:    18635.5 ave 19483 max 17217 min
Histogram: 1 0 0 2 1 0 3 1 2 2

Total # of neighbors = 223626
Ave neighs/atom = 221.851
Neighbor list builds = 0
Dangerous builds = 0
  triclinic box = (0 0 0) to (23.3007 23.3007 23.3007) with tilt (0 0 0.077661)
WARNING: Resetting reneighboring criteria during minimization (../min.cpp:168)
Ewald initialization ...
  G vector (1/distance) = 0.365055
  estimated absolute RMS force accuracy = 1.94166e-05
  estimated relative force accuracy = 1.34841e-06
  KSpace vectors: actual max1d max3d = 2081 10 4630
                  kxmax kymax kzmax  = 10 10 10
Memory usage per processor = 4.56171 Mbytes
Step Temp E_pair E_mol TotEng Press 
    1015           10   -18273.087            0   -18271.785   -4930.0432 
    1026           10   -18273.112            0   -18271.811   -5058.4748 
Loop time of 0.19057 on 12 procs for 11 steps with 1008 atoms

100.1% CPU use with 12 MPI tasks x no OpenMP threads

Minimization stats:
  Stopping criterion = linesearch alpha is zero
  Energy initial, next-to-last, final = 
         -18273.086747     -18273.1121661     -18273.1121661
  Force two-norm initial, final = 0.834596 0.125901
  Force max component initial, final = 0.0804986 0.0178381
  Final line search alpha, max atom move = 4.76837e-07 8.50585e-09
  Iterations, force evaluations = 11 63

MPI task timing breakdown:
Section |  min time  |  avg time  |  max time  |%varavg| %total
---------------------------------------------------------------
Pair    | 0.062732   | 0.070469   | 0.074341   |   1.2 | 36.98
Kspace  | 0.10308    | 0.10568    | 0.10851    |   0.6 | 55.45
Neigh   | 0          | 0          | 0          |   0.0 |  0.00
Comm    | 0.0093255  | 0.012403   | 0.017735   |   2.0 |  6.51
Output  | 0          | 0          | 0          |   0.0 |  0.00
Modify  | 0          | 0          | 0          |   0.0 |  0.00
Other   |            | 0.002017   |            |       |  1.06

Nlocal:    84 ave 89 max 78 min
Histogram: 1 0 1 2 0 3 1 2 1 1
Nghost:    2608.42 ave 2634 max 2576 min
Histogram: 1 1 0 2 1 0 2 3 1 1
Neighs:    18634.1 ave 19478 max 17216 min
Histogram: 1 0 0 2 1 0 3 1 2 2

Total # of neighbors = 223609
Ave neighs/atom = 221.834
Neighbor list builds = 0
Dangerous builds = 0
  triclinic box = (0 0 0) to (23.3007 23.3007 23.3007) with tilt (0 0 0.116503)
WARNING: Resetting reneighboring criteria during minimization (../min.cpp:168)
Ewald initialization ...
  G vector (1/distance) = 0.365055
  estimated absolute RMS force accuracy = 1.94166e-05
  estimated relative force accuracy = 1.34841e-06
  KSpace vectors: actual max1d max3d = 2079 10 4630
                  kxmax kymax kzmax  = 10 10 10
Memory usage per processor = 4.56171 Mbytes
Step Temp E_pair E_mol TotEng Press 
    1026           10   -18272.969            0   -18271.668   -4902.4037 
    1041           10   -18273.029            0   -18271.728    -5094.868 
Loop time of 0.220108 on 12 procs for 15 steps with 1008 atoms

100.1% CPU use with 12 MPI tasks x no OpenMP threads

Minimization stats:
  Stopping criterion = linesearch alpha is zero
  Energy initial, next-to-last, final = 
         -18272.969321     -18273.0294776     -18273.0294776
  Force two-norm initial, final = 1.25224 0.136779
  Force max component initial, final = 0.12097 0.0135183
  Final line search alpha, max atom move = 4.76837e-07 6.44601e-09
  Iterations, force evaluations = 15 73

MPI task timing breakdown:
Section |  min time  |  avg time  |  max time  |%varavg| %total
---------------------------------------------------------------
Pair    | 0.072917   | 0.081344   | 0.084938   |   1.2 | 36.96
Kspace  | 0.1195     | 0.1222     | 0.1252     |   0.6 | 55.52
Neigh   | 0          | 0          | 0          |   0.0 |  0.00
Comm    | 0.010332   | 0.014223   | 0.020107   |   2.1 |  6.46
Output  | 0          | 0          | 0          |   0.0 |  0.00
Modify  | 0          | 0          | 0          |   0.0 |  0.00
Other   |            | 0.002344   |            |       |  1.06

Nlocal:    84 ave 89 max 78 min
Histogram: 1 0 1 2 0 3 1 2 1 1
Nghost:    2608.42 ave 2634 max 2576 min
Histogram: 1 1 0 2 1 0 2 3 1 1
Neighs:    18636.8 ave 19479 max 17218 min
Histogram: 1 0 0 2 1 0 3 1 2 2

Total # of neighbors = 223641
Ave neighs/atom = 221.866
Neighbor list builds = 0
Dangerous builds = 0
Total wall time: 0:00:18
