ITEM: TIMESTEP
0
ITEM: NUMBER OF ATOMS
1008
ITEM: BOX BOUNDS xy xz yz pp pp pp
0.0 23.3006801605 0.0
0.0 23.3006801605 0.0
0.0 23.3006801605 0.0
ITEM: ATOMS id type x y z
1 1 4.330375194549561 -6.939785003662109 -8.021104812622070 
2 1 0.098013274371624 6.150423049926758 -1.395988702774048 
3 1 -10.978568077087402 5.550663948059082 -3.286226511001587 
4 1 -1.401480317115784 3.172774314880371 -1.442430496215820 
5 1 5.920966625213623 -11.505437850952148 -11.616135597229004 
6 1 -0.005349499173462 -2.478317499160767 10.252191543579102 
7 1 8.066461563110352 0.162182971835136 -3.326780796051025 
8 1 -4.099526405334473 -1.006686210632324 -4.626615524291992 
9 1 -9.759464263916016 10.295864105224609 -1.679235816001892 
10 1 5.201671600341797 -0.249199137091637 -9.531678199768066 
11 1 9.698130607604980 2.072262763977051 7.019727706909180 
12 1 9.103294372558594 -2.852219104766846 4.524227142333984 
13 1 0.833184659481049 3.461882591247559 9.664769172668457 
14 1 -6.774641036987305 4.500256538391113 -1.293418288230896 
15 1 -5.122170925140381 -3.807709455490112 5.530248165130615 
16 1 3.183086633682251 -9.034558296203613 4.294577598571777 
17 1 -10.336830139160156 3.583698272705078 5.810934066772461 
18 1 -9.544862747192383 2.229383945465088 -2.345493316650391 
19 1 -0.619034290313721 -1.271678090095520 5.004023075103760 
20 1 -10.177563667297363 -2.652317285537720 8.309367179870605 
21 1 10.936544418334961 -5.669655799865723 5.179662227630615 
22 1 -0.070368304848671 -7.058042526245117 -3.266976356506348 
23 1 -5.751225948333740 -7.064129352569580 7.464593887329102 
24 1 7.715784072875977 4.528245925903320 9.101390838623047 
25 1 7.255890369415283 -2.677090883255005 9.276963233947754 
26 1 -5.597869396209717 6.822248458862305 6.966216564178467 
27 1 8.184417724609375 -10.847481727600098 2.350351810455322 
28 1 0.415908902883530 10.399688720703125 5.947071075439453 
29 1 -3.180114269256592 -10.923070907592773 -4.643442153930664 
30 1 -6.076077938079834 2.937943935394287 -7.547592639923096 
31 1 -1.430090785026550 5.226405620574951 -7.503254413604736 
32 1 -11.544511795043945 6.799600124359131 6.373016834259033 
33 1 4.593904972076416 6.108841419219971 1.189431786537170 
34 1 2.171942949295044 3.379055738449097 0.006549365818501 
35 1 0.436731964349747 -1.450701832771301 -5.509129524230957 
36 1 -10.686052322387695 -11.359368324279785 10.186998367309570 
37 1 11.570317268371582 -0.687066435813904 5.524871826171875 
38 1 -4.775942325592041 1.443858742713928 -1.392005562782288 
39 1 4.556299686431885 -3.956229686737061 -6.072983741760254 
40 1 -6.996528148651123 -4.386078357696533 2.355904579162598 
41 1 -3.498380661010742 -7.130630970001221 -5.052956581115723 
42 1 3.136866807937622 -10.233186721801758 -10.002636909484863 
43 1 -8.558188438415527 5.305029869079590 -9.086425781250000 
44 1 -2.476702690124512 -8.972572326660156 -1.517044782638550 
45 1 -8.434761047363281 10.710267066955566 7.756935119628906 
46 1 0.618244886398315 9.186121940612793 9.520122528076172 
47 1 7.333373069763184 -9.144149780273438 -4.472281455993652 
48 1 4.907294750213623 -8.980235099792480 8.752851486206055 
49 1 3.537402629852295 11.486291885375977 -5.877079963684082 
50 1 -10.573451042175293 -5.705822467803955 2.280708789825439 
51 1 -5.888007164001465 11.088335990905762 5.283035278320312 
52 1 -10.986048698425293 -0.558847725391388 -0.965887606143951 
53 1 -1.963635325431824 1.084023714065552 1.024848341941833 
54 1 -1.501732587814331 -0.664190173149109 -2.121370077133179 
55 1 3.816876888275146 -4.248306751251221 9.936897277832031 
56 1 2.927504539489746 8.312700271606445 -4.258810997009277 
57 1 6.744064331054688 -5.731058597564697 -10.503962516784668 
58 1 3.780198097229004 5.511938095092773 -1.981136560440063 
59 1 3.540639638900757 9.413943290710449 -9.117521286010742 
60 1 0.564179718494415 5.511916637420654 2.787577867507935 
61 1 2.475147008895874 1.063478112220764 -7.372569561004639 
62 1 8.515253067016602 7.510532855987549 -5.989259243011475 
63 1 -1.863212347030640 -5.511475086212158 -0.128297850489616 
64 1 -5.112296581268311 -6.905320167541504 1.119286060333252 
65 1 8.755827903747559 6.104947566986084 -2.687180280685425 
66 1 -0.016124544665217 -3.593291282653809 -8.724704742431641 
67 1 5.514859199523926 -3.807866811752319 1.912267446517944 
68 1 9.231164932250977 7.250370979309082 11.167620658874512 
69 1 -11.558867454528809 -9.663088798522949 -2.378654479980469 
70 1 -6.661644935607910 -3.164026260375977 -6.038031101226807 
71 1 -1.071538329124451 9.782800674438477 -6.032837867736816 
72 1 3.881184816360474 1.183104395866394 2.503098487854004 
73 1 -7.465887069702148 0.445871740579605 -5.057526588439941 
74 1 -3.521687746047974 4.643999099731445 -10.290592193603516 
75 1 -10.550620079040527 -6.062440395355225 10.873434066772461 
76 1 3.631884574890137 10.584951400756836 3.586447000503540 
77 1 3.168823242187500 10.282984733581543 -1.681439280509949 
78 1 10.772359848022461 11.221789360046387 0.167274862527847 
79 1 3.975542783737183 -9.640186309814453 -2.988584756851196 
80 1 10.103029251098633 0.607185065746307 -9.764107704162598 
81 1 -9.889566421508789 0.731645107269287 8.433717727661133 
82 1 1.687979578971863 -6.404773712158203 0.056176103651524 
83 1 -2.562242031097412 9.502126693725586 0.364998131990433 
84 1 1.620418429374695 -0.812697708606720 -10.251290321350098 
85 1 -7.780905246734619 -3.136961936950684 10.993964195251465 
86 1 -8.476078987121582 9.557555198669434 1.764587521553040 
87 1 7.672299861907959 8.180582046508789 8.142209053039551 
88 1 -2.756191253662109 1.809088468551636 -6.574002265930176 
89 1 -2.916673898696899 5.404956340789795 4.725479125976562 
90 1 9.563072204589844 -4.242772579193115 -8.482261657714844 
91 1 3.452202081680298 11.621140480041504 6.873138904571533 
92 1 3.561747789382935 1.771209478378296 -3.081202268600464 
93 1 -7.178533554077148 8.088366508483887 10.197827339172363 
94 1 -8.683630943298340 7.899415969848633 5.105721473693848 
95 1 -9.147441864013672 10.114899635314941 -10.392559051513672 
96 1 5.607949256896973 4.789635658264160 -9.834231376647949 
97 1 -1.981734275817871 -9.609870910644531 9.489972114562988 
98 1 10.530468940734863 -7.410344600677490 0.000178666203283 
99 1 0.267765700817108 -6.306704521179199 10.066082000732422 
100 1 -7.125107765197754 8.121249198913574 -2.089300632476807 
101 1 4.168004989624023 -0.990861654281616 5.531071186065674 
102 1 6.799465656280518 1.578508853912354 11.097840309143066 
103 1 0.688962221145630 -9.759301185607910 7.077533245086670 
104 1 -10.163422584533691 0.693826019763947 -11.354388236999512 
105 1 7.226437568664551 11.089321136474609 -5.636153697967529 
106 1 -9.640489578247070 -1.849573135375977 -4.237403869628906 
107 1 -5.216657161712646 -4.911845207214355 10.418511390686035 
108 1 -1.655449748039246 6.305124282836914 -4.420615196228027 
109 1 -10.681188583374023 7.993961334228516 -8.141696929931641 
110 1 -1.332385182380676 6.485954761505127 10.695255279541016 
111 1 -1.833950757980347 7.959916114807129 -9.297258377075195 
112 1 7.551841735839844 -7.578334331512451 3.901679039001465 
113 1 11.139836311340332 0.599280774593353 -4.657793045043945 
114 1 11.366721153259277 9.002072334289551 -4.507206439971924 
115 1 6.750525474548340 3.562913417816162 -3.248711585998535 
116 1 -8.021327018737793 -7.718094825744629 4.320464134216309 
117 1 -2.346611499786377 -3.715275287628174 8.113040924072266 
118 1 -2.931621074676514 9.151905059814453 6.496404647827148 
119 1 3.474056959152222 -7.069138526916504 11.604112625122070 
120 1 11.100425720214844 9.546082496643066 8.719835281372070 
121 1 9.860898017883301 4.042041778564453 -5.562077999114990 
122 1 -6.657968521118164 11.378512382507324 -4.108778953552246 
123 1 -11.647707939147949 4.030133724212646 9.029006004333496 
124 1 7.580253124237061 -11.484469413757324 8.625898361206055 
125 1 -7.027174472808838 0.525578200817108 11.052298545837402 
126 1 -9.815922737121582 1.458344817161560 3.035465955734253 
127 1 -10.735163688659668 2.643251419067383 -7.618400096893311 
128 1 -3.085699796676636 0.147388130426407 7.459870338439941 
129 1 2.494984865188599 -6.472422122955322 6.966749191284180 
130 1 -3.723907232284546 -4.408899307250977 -7.596290111541748 
131 1 -3.658488750457764 6.405197143554688 -1.457317471504211 
132 1 4.903363704681396 -7.741995811462402 1.224041461944580 
133 1 -5.612187862396240 7.569154739379883 -9.571359634399414 
134 1 -7.856049537658691 0.229790344834328 -8.605433464050293 
135 1 7.124356746673584 9.576658248901367 -8.971314430236816 
136 1 -8.293460845947266 -8.853463172912598 8.960148811340332 
137 1 -1.721610069274902 -3.955707788467407 -3.701061725616455 
138 1 -7.234712600708008 -0.761088609695435 1.505146384239197 
139 1 -5.287024974822998 -10.790451049804688 8.275357246398926 
140 1 -4.269997119903564 3.657088279724121 -3.724166393280029 
141 1 8.453312873840332 -8.979056358337402 -10.676462173461914 
142 1 1.570111632347107 8.432858467102051 1.164825797080994 
143 1 0.378550082445145 2.013427257537842 3.843804597854614 
144 1 8.734981536865234 10.990214347839355 -2.448400974273682 
145 1 7.326759338378906 -9.206052780151367 -0.882955014705658 
146 1 -11.455761909484863 -2.688929319381714 -11.042090415954590 
147 1 -1.814015865325928 1.170396089553833 10.391222953796387 
148 1 5.642138957977295 0.912026643753052 -0.518160939216614 
149 1 -4.918646335601807 -5.078797340393066 -2.210706472396851 
150 1 6.532302856445312 -2.338899135589600 -1.393150568008423 
151 1 9.468310356140137 10.877358436584473 -11.433385848999023 
152 1 0.948968589305878 -3.026948928833008 -1.281309604644775 
153 1 -1.256573200225830 -2.592303276062012 1.938518881797791 
154 1 5.179273128509521 7.013577461242676 -6.866142749786377 
155 1 9.435689926147461 -1.690614581108093 0.835519254207611 
156 1 -6.456942081451416 2.949686765670776 1.716743946075439 
157 1 5.892708301544189 1.854664802551270 7.389981746673584 
158 1 10.010379791259766 -0.336338192224503 9.962199211120605 
159 1 -7.609598159790039 6.115943908691406 2.081572294235229 
160 1 -3.713353872299194 4.371361732482910 9.246689796447754 
161 1 -6.674264430999756 0.658053874969482 4.832241058349609 
162 1 -3.679238080978394 9.391663551330566 9.901933670043945 
163 1 11.514694213867188 -7.228151798248291 -9.277709007263184 
164 1 -2.207894802093506 -5.862238407135010 -10.695656776428223 
165 1 7.638767242431641 4.057085990905762 0.259344100952148 
166 1 -7.441059112548828 10.391977310180664 -7.235377311706543 
167 1 -5.736989498138428 -8.567237854003906 -3.052354574203491 
168 1 8.074649810791016 -2.385002374649048 -10.334854125976562 
169 1 1.766163945198059 -8.957054138183594 -6.025656700134277 
170 1 -0.350001245737076 9.662513732910156 -2.568042993545532 
171 1 7.055305004119873 -5.910906791687012 9.000167846679688 
172 1 -8.528998374938965 7.272089481353760 -5.572959899902344 
173 1 3.591692209243774 -2.057365417480469 -3.552448987960815 
174 1 3.042736530303955 -5.763903141021729 3.516906976699829 
175 1 -11.202333450317383 -9.455415725708008 6.947429180145264 
176 1 -4.976404666900635 6.199598312377930 -6.186916351318359 
177 1 9.048479080200195 -4.971071720123291 1.813032865524292 
178 1 4.936291694641113 4.065060138702393 4.429081916809082 
179 1 6.086081981658936 -10.195303916931152 -8.019598960876465 
180 1 -11.000622749328613 4.303115844726562 -10.988138198852539 
181 1 -10.920598983764648 -1.850917100906372 -7.797809600830078 
182 1 2.336608886718750 -9.811839103698730 0.158627003431320 
183 1 3.977551698684692 8.141799926757812 8.042974472045898 
184 1 -4.065110206604004 -9.133129119873047 -10.819516181945801 
185 1 -7.341982364654541 -7.205199718475342 -10.900669097900391 
186 1 0.305608421564102 1.697227120399475 -4.446985721588135 
187 1 -5.074488162994385 -1.966538310050964 -10.113546371459961 
188 1 9.328846931457520 8.290510177612305 0.271151363849640 
189 1 9.547428131103516 5.786081790924072 -8.598396301269531 
190 1 2.345170259475708 -10.622772216796875 10.143672943115234 
191 1 -6.701102733612061 4.370467662811279 11.181838035583496 
192 1 10.397126197814941 10.660980224609375 -7.352488517761230 
193 1 -0.248908251523972 11.443575859069824 1.987785339355469 
194 1 2.267549514770508 7.046883583068848 -11.260719299316406 
195 1 -9.067354202270508 -8.300747871398926 -4.424207210540771 
196 1 5.824051856994629 -4.561575412750244 5.613006591796875 
197 1 -8.572679519653320 -4.839274883270264 -3.321160554885864 
198 1 7.621149539947510 2.331010818481445 -8.006657600402832 
199 1 8.907729148864746 -1.134265422821045 -6.752572059631348 
200 1 10.843444824218750 -3.997280597686768 -1.316239118576050 
201 1 -9.516999244689941 -11.066305160522461 4.357886791229248 
202 1 3.700921535491943 -3.789402723312378 -9.743808746337891 
203 1 8.385065078735352 3.023835659027100 3.739950180053711 
204 1 -8.404882431030273 -7.100818634033203 -0.377021223306656 
205 1 -6.768405437469482 2.567008733749390 8.093753814697266 
206 1 10.338776588439941 5.725003242492676 2.133627653121948 
207 1 -6.687067031860352 -6.460006713867188 -7.183328628540039 
208 1 -2.646180868148804 -10.652053833007812 -8.222514152526855 
209 1 0.031864676624537 -8.253426551818848 2.638352870941162 
210 1 5.506410598754883 -0.276442825794220 -5.964200973510742 
211 1 5.685165405273438 8.027178764343262 11.395507812500000 
212 1 -4.020250320434570 -1.037106513977051 3.185228586196899 
213 1 2.657887220382690 6.057342052459717 5.865279674530029 
214 1 6.282778739929199 -10.406599044799805 5.439218521118164 
215 1 -1.581896901130676 11.002500534057617 -11.314023017883301 
216 1 6.654204368591309 9.100007057189941 2.010325431823730 
217 1 -2.117286682128906 -1.037671804428101 -8.091354370117188 
218 1 4.717142105102539 3.364535331726074 -6.238128662109375 
219 1 7.146251201629639 -6.100231647491455 -6.436545372009277 
220 1 -6.542090892791748 -1.172847032546997 7.842921257019043 
221 1 -0.968288481235504 8.316852569580078 3.680613279342651 
222 1 -2.003615379333496 -7.127335548400879 6.855017185211182 
223 2 -5.175676345825195 -1.192793607711792 1.449249386787415 
224 2 -9.171689987182617 8.448547363281250 -1.478933930397034 
225 2 10.287651062011719 9.560383796691895 4.668200492858887 
226 2 6.435992240905762 2.635770082473755 -0.344293802976608 
227 2 -4.354264259338379 -8.532555580139160 1.672909855842590 
228 2 9.249106407165527 -2.738297700881958 -5.432246685028076 
229 2 9.177121162414551 -8.812171936035156 -5.267445564270020 
230 2 -8.178628921508789 7.734051704406738 1.035764455795288 
231 2 -6.214156627655029 9.605013847351074 -3.329212665557861 
232 2 10.856627464294434 10.948564529418945 10.232687950134277 
233 2 -5.903998374938965 2.821211099624634 -0.530773103237152 
234 2 6.723783016204834 -10.811824798583984 3.648448944091797 
235 2 7.253093719482422 -4.290378093719482 -2.220944166183472 
236 2 10.680757522583008 -5.932584762573242 -1.307647943496704 
237 2 8.979323387145996 10.024400711059570 -8.527235031127930 
238 2 -5.335381984710693 -10.680194854736328 -10.905354499816895 
239 2 10.969184875488281 -3.601415872573853 -7.318899154663086 
240 2 -3.708049774169922 8.273525238037109 -9.661570549011230 
241 2 7.360774517059326 7.701406955718994 10.250973701477051 
242 2 5.870132923126221 3.467932224273682 -7.960057735443115 
243 2 -9.725358009338379 -11.258215904235840 -9.728249549865723 
244 2 -2.786365509033203 8.679480552673340 4.496098995208740 
245 2 -1.363072752952576 9.712393760681152 -9.889451026916504 
246 2 4.293177604675293 -10.611037254333496 -7.229105949401855 
247 2 6.143070220947266 -5.949772834777832 -8.582406997680664 
248 2 9.300223350524902 10.044619560241699 -0.709537088871002 
249 2 -6.167171001434326 -8.943207740783691 8.232415199279785 
250 2 -7.019160747528076 -11.063112258911133 -7.949435234069824 
251 2 -4.018020629882812 10.251575469970703 -1.070990562438965 
252 2 -11.508284568786621 -10.016771316528320 11.395666122436523 
253 2 2.086460828781128 4.203921794891357 8.285677909851074 
254 2 -9.338773727416992 1.522457242012024 -8.379364013671875 
255 2 -11.419825553894043 7.468290328979492 -3.510461807250977 
256 2 -6.948146343231201 10.676836967468262 1.819895863533020 
257 2 10.913625717163086 0.661357104778290 -0.574209451675415 
258 2 10.482128143310547 2.614311218261719 -4.238974094390869 
259 2 11.534914970397949 8.451678276062012 7.263463973999023 
260 2 11.062331199645996 10.932460784912109 -10.326606750488281 
261 2 4.556990146636963 -3.519843578338623 -7.965373992919922 
262 2 4.588381767272949 5.150859355926514 2.833811521530151 
263 2 -0.533609092235565 -8.750123023986816 -2.066865205764771 
264 2 -3.807390213012695 -5.243974208831787 -11.563319206237793 
265 2 -3.713050365447998 0.945943772792816 0.066642992198467 
266 2 -3.425288915634155 -3.805445909500122 6.562110900878906 
267 2 -2.218450546264648 -10.519560813903809 -2.762017965316772 
268 2 -4.485889434814453 8.187591552734375 -5.232092380523682 
269 2 9.352140426635742 7.324941635131836 -1.345195174217224 
270 2 -9.940998077392578 10.715591430664062 11.346467971801758 
271 2 -7.953507423400879 -9.076655387878418 -10.163065910339355 
272 2 3.179074048995972 -4.860229015350342 -11.541926383972168 
273 2 -8.924585342407227 -6.052709579467773 -1.868275642395020 
274 2 10.216667175292969 -3.231316328048706 -10.106145858764648 
275 2 -9.035842895507812 -0.126754790544510 2.074354648590088 
276 2 5.386126518249512 -1.028495788574219 -0.531232893466949 
277 2 7.820715427398682 4.552952289581299 -1.670793414115906 
278 2 -3.330560684204102 -0.229954212903976 -6.254028320312500 
279 2 7.200712203979492 8.530808448791504 0.043376788496971 
280 2 -4.696861743927002 -11.080660820007324 1.307869195938110 
281 2 2.428572177886963 -9.545488357543945 -1.714929580688477 
282 2 -10.390524864196777 -3.788741588592529 -3.762880325317383 
283 2 -9.677711486816406 -8.325153350830078 7.535776615142822 
284 2 -8.448061943054199 1.218449115753174 4.336841583251953 
285 2 9.053286552429199 2.130500555038452 -10.292806625366211 
286 2 7.735509395599365 -2.632957220077515 11.153120040893555 
287 2 -2.092430114746094 -1.547516107559204 3.672084331512451 
288 2 9.318827629089355 2.761551141738892 -0.162417232990265 
289 2 -6.820299148559570 6.298162937164307 10.963545799255371 
290 2 -8.722248077392578 9.364394187927246 6.472924709320068 
291 2 11.159929275512695 6.826813697814941 -8.413806915283203 
292 2 2.003807783126831 6.039229869842529 -1.502516865730286 
293 2 -8.106174468994141 -3.325592994689941 -4.654266357421875 
294 2 -3.105054140090942 0.746775567531586 2.642460107803345 
295 2 -10.470032691955566 -6.028951644897461 -8.524066925048828 
296 2 -4.361727714538574 6.392906188964844 5.504228115081787 
297 2 3.434307098388672 -5.711856365203857 -9.089963912963867 
298 2 -1.167868137359619 11.521290779113770 -7.610977649688721 
299 2 -8.807173728942871 -10.211840629577637 -4.293496608734131 
300 2 -2.037616252899170 7.407451629638672 6.659629344940186 
301 2 1.552072167396545 -10.919906616210938 -6.599663734436035 
302 2 -8.270047187805176 1.870336294174194 -3.857876539230347 
303 2 -7.442501544952393 -6.226160049438477 -9.190299034118652 
304 2 -6.844373703002930 -3.992443084716797 9.604501724243164 
305 2 -1.895575404167175 0.985111176967621 -8.294898033142090 
306 2 -2.134875297546387 -9.716979026794434 0.155214205384254 
307 2 -2.576597690582275 3.891961097717285 3.485040187835693 
308 2 2.886493921279907 -0.294315159320831 1.576889038085938 
309 2 1.583626389503479 -4.087375640869141 -2.896087169647217 
310 2 -9.177285194396973 -4.002334117889404 7.080804347991943 
311 2 7.620383739471436 -11.550469398498535 6.376875400543213 
312 2 -4.778717517852783 -2.962194442749023 -6.501088142395020 
313 2 5.878571510314941 7.965858936309814 7.177139759063721 
314 2 1.522236824035645 -6.312549114227295 -4.471762657165527 
315 2 3.838696956634521 4.097133636474609 -9.885318756103516 
316 2 0.178717777132988 8.666697502136230 5.171969413757324 
317 2 1.085953950881958 -10.896165847778320 1.088041663169861 
318 2 -7.507534980773926 -3.612931013107300 -7.722997188568115 
319 2 6.038225173950195 -10.760989189147949 9.691381454467773 
320 2 -11.121459960937500 -11.118693351745605 0.885575294494629 
321 2 -3.383686304092407 -4.727156162261963 -3.275285482406616 
322 2 1.634934663772583 7.519240856170654 -5.484286308288574 
323 2 -8.549051284790039 1.949289560317993 7.805312633514404 
324 2 10.165081977844238 -8.643852233886719 -9.438646316528320 
325 2 -5.340338706970215 -10.309477806091309 6.205616474151611 
326 2 11.433725357055664 -0.911055386066437 -9.358172416687012 
327 2 -10.660333633422852 -4.026900768280029 -0.863021552562714 
328 2 -2.104091167449951 3.092207193374634 0.396492898464203 
329 2 8.317564964294434 11.405817985534668 10.361074447631836 
330 2 7.169396400451660 9.999354362487793 8.478870391845703 
331 2 9.848060607910156 6.558954715728760 5.843402385711670 
332 2 -6.906353950500488 -3.947601079940796 4.304025650024414 
333 2 -2.401304721832275 -7.745914936065674 -6.457882404327393 
334 2 -6.388624668121338 1.552013516426086 -9.053495407104492 
335 2 3.027629375457764 6.223460197448730 -3.741106986999512 
336 2 5.975655078887939 -3.654712915420532 -0.047933839261532 
337 2 7.787950038909912 -10.993178367614746 -1.396244168281555 
338 2 -1.333482861518860 -6.162825584411621 10.936535835266113 
339 2 -9.539638519287109 0.777036905288696 -1.071906447410583 
340 2 -9.127701759338379 -6.255957603454590 -4.507558345794678 
341 2 7.251367568969727 9.827390670776367 -2.717313528060913 
342 2 7.883742809295654 3.119275093078613 10.464687347412109 
343 2 -11.198143959045410 5.213022232055664 5.363554954528809 
344 2 8.469245910644531 7.444039344787598 -8.013069152832031 
345 2 -4.958074569702148 4.636346340179443 -7.432481765747070 
346 2 -11.170283317565918 2.970664262771606 -1.202073574066162 
347 2 5.061463832855225 -2.729032754898071 5.340632915496826 
348 2 10.406209945678711 4.857767105102539 -2.388431549072266 
349 2 4.799333572387695 7.894546508789062 9.725334167480469 
350 2 9.551877975463867 -10.922278404235840 1.043588757514954 
351 2 -5.112339496612549 -7.651368141174316 -6.188628196716309 
352 2 5.108291625976562 2.513697862625122 11.512155532836914 
353 2 -5.764244079589844 -10.950958251953125 3.805613040924072 
354 2 1.235400438308716 -5.063405990600586 6.256588459014893 
355 2 3.595021009445190 -10.640340805053711 8.617247581481934 
356 2 2.395492792129517 -5.879214286804199 1.734875321388245 
357 2 3.630118131637573 -2.533317089080811 10.572355270385742 
358 2 2.025990247726440 -1.934001088142395 -4.626425743103027 
359 2 -4.376692771911621 -8.961050987243652 -1.682037472724915 
360 2 9.895504951477051 2.158501625061035 2.996861934661865 
361 2 -11.471221923828125 -5.924118995666504 6.975906848907471 
362 2 3.204853057861328 -11.555665016174316 -0.257611870765686 
363 2 8.767033576965332 -2.358354568481445 -8.286100387573242 
364 2 -8.424801826477051 -3.761259555816650 -10.697332382202148 
365 2 -9.473278999328613 6.732784748077393 6.683840751647949 
366 2 -4.534923553466797 11.324830055236816 -3.843289375305176 
367 2 -7.871399402618408 4.403782367706299 -10.697819709777832 
368 2 -0.954578936100006 -5.486220359802246 -2.056794404983521 
369 2 -0.324813306331635 -7.159395217895508 -9.820306777954102 
370 2 -2.303509235382080 8.824971199035645 -7.475615501403809 
371 2 -8.568781852722168 -5.822134017944336 -6.979158878326416 
372 2 -3.933025360107422 -7.480277538299561 4.245901107788086 
373 2 -2.758183479309082 -1.762770175933838 8.145323753356934 
374 2 11.216907501220703 5.153415679931641 -4.777401447296143 
375 2 -1.816557884216309 -3.092236995697021 10.166152000427246 
376 2 -0.247429504990578 -6.333863258361816 0.505077362060547 
377 2 4.588020801544189 -2.031913042068481 -5.445282936096191 
378 2 10.145479202270508 -3.824889183044434 -3.115122079849243 
379 2 6.856445312500000 -9.816855430603027 -11.332335472106934 
380 2 -11.422341346740723 -8.255766868591309 5.488162040710449 
381 2 -6.824024200439453 4.619969844818115 3.113404750823975 
382 2 10.503497123718262 9.741675376892090 1.520546197891235 
383 2 -5.566339969635010 -0.207586422562599 -1.749379277229309 
384 2 -0.783872723579407 -8.966152191162109 11.029159545898438 
385 2 -10.375431060791016 8.473578453063965 -10.047984123229980 
386 2 -7.337266445159912 4.417991638183594 -3.093313694000244 
387 2 -5.033871650695801 3.110896825790405 8.501771926879883 
388 2 7.028986454010010 6.967458724975586 -2.633489131927490 
389 2 -7.944791793823242 7.779294490814209 -3.810051441192627 
390 2 4.108471393585205 10.083828926086426 7.688671112060547 
391 2 -11.149426460266113 -0.660490930080414 9.085264205932617 
392 2 1.845874428749084 5.542428970336914 -7.090098381042480 
393 2 -7.128137111663818 -1.337390542030334 -6.129612445831299 
394 2 4.838468074798584 -0.028483981266618 3.877148389816284 
395 2 -1.034164190292358 5.382899761199951 1.651429176330566 
396 2 10.997000694274902 -2.039371967315674 4.124350547790527 
397 2 -6.561060428619385 3.200915813446045 -5.692944049835205 
398 2 -0.909221112728119 -0.916961133480072 -6.653320789337158 
399 2 -3.408673524856567 -10.121719360351562 7.995038986206055 
400 2 -0.520800232887268 7.048553943634033 -8.073843002319336 
401 2 9.909436225891113 -4.562051296234131 3.674638271331787 
402 2 -10.809306144714355 -4.646688461303711 4.732439994812012 
403 2 -6.665624618530273 -5.158324241638184 -2.973408460617065 
404 2 3.738352775573730 -3.245622873306274 1.774472951889038 
405 2 -7.943197727203369 -5.010548591613770 0.482033818960190 
406 2 3.067673921585083 0.730583667755127 6.246896743774414 
407 2 5.709388256072998 -0.074075140058994 6.579735755920410 
408 2 -10.037586212158203 -6.617010593414307 0.659098625183105 
409 2 5.202231407165527 -5.812156200408936 1.127832412719727 
410 2 5.433511257171631 -4.159006595611572 -10.618603706359863 
411 2 1.334323644638062 -2.113555192947388 0.525834321975708 
412 2 -0.872385323047638 -10.067858695983887 2.563487052917480 
413 2 -5.030556678771973 7.444581031799316 -7.646770954132080 
414 2 -7.453718662261963 -1.528292417526245 -0.297268599271774 
415 2 3.980216741561890 -5.266715526580811 6.168906211853027 
416 2 9.611775398254395 -1.763605475425720 6.148384094238281 
417 2 8.415349006652832 -4.282196044921875 9.007128715515137 
418 2 -6.246216297149658 -10.459331512451172 -5.376589298248291 
419 2 -0.999500989913940 -0.638437449932098 10.345402717590332 
420 2 3.513765573501587 7.713203430175781 -7.962285518646240 
421 2 -10.590142250061035 0.572869956493378 6.663301467895508 
422 2 9.215475082397461 7.197083950042725 -4.203207969665527 
423 2 -1.950334191322327 4.603968620300293 6.229220867156982 
424 2 4.135398864746094 -9.640382766723633 1.091682195663452 
425 2 0.020463950932026 -10.880859375000000 5.582247257232666 
426 2 -6.658963680267334 -0.602398395538330 3.358512163162231 
427 2 8.079361915588379 -2.044993162155151 -0.365396440029144 
428 2 -2.880380153656006 -1.579112291336060 -1.060876965522766 
429 2 3.699888229370117 3.053073883056641 -4.542395114898682 
430 2 1.504042387008667 -9.838341712951660 -8.932606697082520 
431 2 -5.353867530822754 8.572128295898438 9.804716110229492 
432 2 -11.062161445617676 -10.007829666137695 3.515179157257080 
433 2 -10.660958290100098 8.011898994445801 4.813780307769775 
434 2 6.358553886413574 -5.340359687805176 7.327495098114014 
435 2 -1.554045081138611 -6.060726642608643 5.268820762634277 
436 2 9.934938430786133 0.434532880783081 -2.911597728729248 
437 2 -10.715841293334961 -3.802052497863770 1.963431596755981 
438 2 -5.996603488922119 9.605450630187988 -8.614779472351074 
439 2 -3.234599590301514 -10.264930725097656 4.154925823211670 
440 2 -1.442659735679626 1.964898943901062 4.772877693176270 
441 2 -6.871602535247803 -10.851677894592285 -0.099740847945213 
442 2 1.244072556495667 8.222358703613281 11.132146835327148 
443 2 -1.342318892478943 -9.254096031188965 -8.618117332458496 
444 2 -6.882078647613525 4.739857196807861 0.693759143352509 
445 2 -7.256596565246582 1.102196931838989 -6.854136466979980 
446 2 7.470825672149658 1.402076125144958 3.993921041488647 
447 2 -6.680031299591064 0.765595197677612 9.042117118835449 
448 2 0.311836868524551 3.919389486312866 3.769177198410034 
449 2 9.326628684997559 5.701201915740967 -6.568385601043701 
450 2 11.612538337707520 -6.611158370971680 3.589627265930176 
451 2 0.771699547767639 2.374548435211182 5.913990497589111 
452 2 2.765999794006348 -1.497795701026917 4.280928134918213 
453 2 2.603587865829468 -1.885354995727539 -1.835576653480530 
454 2 -4.572494506835938 3.306747674942017 1.840729951858521 
455 2 10.229948043823242 0.682214498519897 5.794414520263672 
456 2 -6.491216182708740 11.015501022338867 7.237541198730469 
457 2 3.815611839294434 8.219452857971191 -10.823943138122559 
458 2 -3.373324871063232 0.234655186533928 9.521707534790039 
459 2 5.907923698425293 4.895658969879150 9.548831939697266 
460 2 -1.818625211715698 -5.536887645721436 7.948010921478271 
461 2 6.886608123779297 8.345411300659180 -10.423664093017578 
462 2 11.346932411193848 5.753316402435303 8.105791091918945 
463 2 -1.217517614364624 6.383141040802002 4.183894634246826 
464 2 0.584350228309631 -1.062036871910095 6.557974338531494 
465 2 5.430271625518799 2.107436180114746 -2.641508340835571 
466 2 9.865582466125488 -4.535823345184326 6.260128021240234 
467 2 -4.865724563598633 4.447173118591309 10.767820358276367 
468 2 9.485902786254883 -10.622724533081055 -10.780258178710938 
469 2 -8.783371925354004 -9.322707176208496 4.984718322753906 
470 2 -8.974731445312500 -9.022564888000488 0.062169641256332 
471 2 2.854679346084595 -7.108207702636719 5.000634670257568 
472 2 0.293733537197113 0.539141595363617 -10.284839630126953 
473 2 6.694215774536133 -7.479758739471436 -5.169361114501953 
474 2 -2.863447189331055 -7.693937778472900 -10.513758659362793 
475 2 -1.225586771965027 10.055237770080566 -0.897407412528992 