LAMMPS (7 Dec 2015)
# Tantala heating to find melting temp. and glass transition temp.
# Intervals of 400 K (starting at 0 K) to be merged with the date from the even directory (also has intervals of 400 K starting at 200 K)
# Including rdf compute and initial velocity seed
# I've written a loop that makes melting/cooling simulation codes less tedious (In test directory input file)

# Initialization

units		metal
atom_style	charge
dimension	3
boundary	p p p

# Optional

neighbor	1.0 nsq
neigh_modify	every 1 delay 1 check yes

# Defining atomic system (896 atoms)

read_data	min1.dat
  triclinic box = (0 0 0) to (23.3007 23.3007 23.3007) with tilt (0 0 0)
  2 by 2 by 3 MPI processor grid
  reading atoms ...
  1008 atoms

# Potential

kspace_style	ewald 1.0e-6
#For low-temperature simulations, comment out the following line
#pair_style	hybrid/overlay lj246/cut 10 buck/coul/long 10 morse 10
#For low-temperature simulations, un-comment the following line
pair_style      hybrid/overlay buck/coul/long 10 morse 10

pair_coeff      1 2 buck/coul/long 100067.01 0.1319 6.05
pair_coeff      2 2 buck/coul/long 1388.773 0.3623188 175.0000
pair_coeff      1 1 buck/coul/long 0.00000000 1.0000000 0.000000
pair_coeff	2 3 buck/coul/long 17243.00 0.2265 128.35
pair_coeff      1 3 buck/coul/long 0.00000000 1.0000000 0.000000
pair_coeff      3 3 buck/coul/long 0.00000000 1.0000000 0.000000
pair_coeff 	1 2 morse 	   0.3789 1.6254 2.5445
#Remove these lines if running low-temperature simulation
#pair_coeff      1 2 lj246/cut	   0.01 0.51
#pair_coeff	2 2 lj246/cut 	   0.00035653 1.9000

# MD parameters

#1 fs timestep
timestep 0.001
thermo		50

fix		1 all nvt temp 10 10 0.1
velocity	all create 10 26684

load_tls min1.dump 1 0
  triclinic box = (0 0 0) to (23.3007 23.3007 23.3007) with tilt (0 0 0)
  1008 atoms before read
  1008 atoms in snapshot
  0 atoms purged
  1008 atoms replaced
  0 atoms trimmed
  0 atoms added
  1008 atoms after read
load_tls min2.dump 2 0
  triclinic box = (0 0 0) to (23.3007 23.3007 23.3007) with tilt (0 0 0)
  1008 atoms before read
  1008 atoms in snapshot
  0 atoms purged
  1008 atoms replaced
  0 atoms trimmed
  0 atoms added
  1008 atoms after read
couple_elastic 0.005 linear
  triclinic box = (0.0582517 0 0) to (23.2424 23.3007 23.3007) with tilt (0 0 0)
WARNING: Resetting reneighboring criteria during minimization (../min.cpp:168)
Ewald initialization ...
  G vector (1/distance) = 0.365089
  estimated absolute RMS force accuracy = 1.92191e-05
  estimated relative force accuracy = 1.33469e-06
  KSpace vectors: actual max1d max3d = 2088 10 4630
                  kxmax kymax kzmax  = 10 10 10
Neighbor list info ...
  2 neighbor list requests
  update every 1 steps, delay 0 steps, check yes
  max neighbors/atom: 2000, page size: 100000
  master list distance cutoff = 11
  ghost atom cutoff = 11
Memory usage per processor = 4.56148 Mbytes
Step Temp E_pair E_mol TotEng Press 
       0           10   -18274.548            0   -18273.246    2204.8057 
      19           10   -18274.697            0   -18273.395   -1449.3129 
Loop time of 0.224973 on 12 procs for 19 steps with 1008 atoms

92.3% CPU use with 12 MPI tasks x no OpenMP threads

Minimization stats:
  Stopping criterion = linesearch alpha is zero
  Energy initial, next-to-last, final = 
        -18274.5477333     -18274.6966479     -18274.6966479
  Force two-norm initial, final = 1.81437 0.148602
  Force max component initial, final = 0.155479 0.0121449
  Final line search alpha, max atom move = 4.76837e-07 5.79115e-09
  Iterations, force evaluations = 19 79

MPI task timing breakdown:
Section |  min time  |  avg time  |  max time  |%varavg| %total
---------------------------------------------------------------
Pair    | 0.077789   | 0.08588    | 0.090134   |   1.0 | 38.17
Kspace  | 0.12576    | 0.12778    | 0.12997    |   0.4 | 56.80
Neigh   | 0          | 0          | 0          |   0.0 |  0.00
Comm    | 0.007292   | 0.010106   | 0.016038   |   2.1 |  4.49
Output  | 0          | 0          | 0          |   0.0 |  0.00
Modify  | 0          | 0          | 0          |   0.0 |  0.00
Other   |            | 0.001209   |            |       |  0.54

Nlocal:    84 ave 87 max 78 min
Histogram: 1 0 0 0 0 3 2 4 1 1
Nghost:    2607 ave 2639 max 2579 min
Histogram: 2 2 0 2 0 1 2 0 2 1
Neighs:    18722.9 ave 19446 max 17294 min
Histogram: 1 0 0 0 1 2 1 4 2 1

Total # of neighbors = 224675
Ave neighs/atom = 222.892
Neighbor list builds = 0
Dangerous builds = 0
  triclinic box = (0.0388306 0 0) to (23.2618 23.3007 23.3007) with tilt (0 0 0)
WARNING: Resetting reneighboring criteria during minimization (../min.cpp:168)
Ewald initialization ...
  G vector (1/distance) = 0.365078
  estimated absolute RMS force accuracy = 1.92793e-05
  estimated relative force accuracy = 1.33888e-06
  KSpace vectors: actual max1d max3d = 2084 10 4630
                  kxmax kymax kzmax  = 10 10 10
Memory usage per processor = 4.56148 Mbytes
Step Temp E_pair E_mol TotEng Press 
      19           10   -18274.618            0   -18273.316   -1400.4158 
      36           10   -18274.681            0   -18273.379   -3787.0825 
Loop time of 0.214968 on 12 procs for 17 steps with 1008 atoms

96.7% CPU use with 12 MPI tasks x no OpenMP threads

Minimization stats:
  Stopping criterion = linesearch alpha is zero
  Energy initial, next-to-last, final = 
        -18274.6178582     -18274.6807316     -18274.6807316
  Force two-norm initial, final = 1.20218 0.118542
  Force max component initial, final = 0.102641 0.0116729
  Final line search alpha, max atom move = 4.76837e-07 5.56608e-09
  Iterations, force evaluations = 17 75

MPI task timing breakdown:
Section |  min time  |  avg time  |  max time  |%varavg| %total
---------------------------------------------------------------
Pair    | 0.074486   | 0.08201    | 0.086877   |   1.1 | 38.15
Kspace  | 0.11879    | 0.12214    | 0.12434    |   0.5 | 56.82
Neigh   | 0          | 0          | 0          |   0.0 |  0.00
Comm    | 0.0070395  | 0.0097618  | 0.015405   |   2.1 |  4.54
Output  | 0          | 0          | 0          |   0.0 |  0.00
Modify  | 0          | 0          | 0          |   0.0 |  0.00
Other   |            | 0.001053   |            |       |  0.49

Nlocal:    84 ave 87 max 78 min
Histogram: 1 0 0 0 0 3 2 4 1 1
Nghost:    2603.5 ave 2632 max 2575 min
Histogram: 1 2 1 0 2 1 1 2 1 1
Neighs:    18690.7 ave 19421 max 17265 min
Histogram: 1 0 0 0 1 2 1 4 2 1

Total # of neighbors = 224288
Ave neighs/atom = 222.508
Neighbor list builds = 0
Dangerous builds = 0
  triclinic box = (0.0194211 0 0) to (23.2813 23.3007 23.3007) with tilt (0 0 0)
WARNING: Resetting reneighboring criteria during minimization (../min.cpp:168)
Ewald initialization ...
  G vector (1/distance) = 0.365066
  estimated absolute RMS force accuracy = 1.9345e-05
  estimated relative force accuracy = 1.34344e-06
  KSpace vectors: actual max1d max3d = 2084 10 4630
                  kxmax kymax kzmax  = 10 10 10
Memory usage per processor = 4.56148 Mbytes
Step Temp E_pair E_mol TotEng Press 
      36           10   -18274.603            0   -18273.301   -4965.3282 
      47           10   -18274.617            0   -18273.316   -6069.8957 
Loop time of 0.173849 on 12 procs for 11 steps with 1008 atoms

98.1% CPU use with 12 MPI tasks x no OpenMP threads

Minimization stats:
  Stopping criterion = linesearch alpha is zero
  Energy initial, next-to-last, final = 
        -18274.6027227     -18274.6174233     -18274.6174233
  Force two-norm initial, final = 0.597239 0.101307
  Force max component initial, final = 0.0508186 0.0116742
  Final line search alpha, max atom move = 9.53674e-07 1.11334e-08
  Iterations, force evaluations = 11 61

MPI task timing breakdown:
Section |  min time  |  avg time  |  max time  |%varavg| %total
---------------------------------------------------------------
Pair    | 0.060034   | 0.066466   | 0.069676   |   1.0 | 38.23
Kspace  | 0.095695   | 0.098753   | 0.10058    |   0.5 | 56.80
Neigh   | 0          | 0          | 0          |   0.0 |  0.00
Comm    | 0.0056219  | 0.0078031  | 0.012443   |   1.9 |  4.49
Output  | 0          | 0          | 0          |   0.0 |  0.00
Modify  | 0          | 0          | 0          |   0.0 |  0.00
Other   |            | 0.0008276  |            |       |  0.48

Nlocal:    84 ave 87 max 78 min
Histogram: 1 0 0 0 0 3 2 4 1 1
Nghost:    2602.5 ave 2630 max 2575 min
Histogram: 1 2 1 0 2 1 2 0 2 1
Neighs:    18658.8 ave 19386 max 17243 min
Histogram: 1 0 0 0 1 2 1 4 2 1

Total # of neighbors = 223906
Ave neighs/atom = 222.129
Neighbor list builds = 0
Dangerous builds = 0
  triclinic box = (0 0 0) to (23.3007 23.3007 23.3007) with tilt (0 0 0)
WARNING: Resetting reneighboring criteria during minimization (../min.cpp:168)
Ewald initialization ...
  G vector (1/distance) = 0.365055
  estimated absolute RMS force accuracy = 1.94166e-05
  estimated relative force accuracy = 1.34841e-06
  KSpace vectors: actual max1d max3d = 2084 10 4630
                  kxmax kymax kzmax  = 10 10 10
Memory usage per processor = 4.56148 Mbytes
Step Temp E_pair E_mol TotEng Press 
      47           10   -18274.498            0   -18273.197   -8493.3274 
      49           10   -18274.498            0   -18273.197   -8491.0884 
Loop time of 0.0674276 on 12 procs for 2 steps with 1008 atoms

98.9% CPU use with 12 MPI tasks x no OpenMP threads

Minimization stats:
  Stopping criterion = linesearch alpha is zero
  Energy initial, next-to-last, final = 
        -18274.4983679     -18274.4983716     -18274.4983716
  Force two-norm initial, final = 0.00470327 0.00314871
  Force max component initial, final = 0.000320297 0.000236233
  Final line search alpha, max atom move = 0.000976562 2.30696e-07
  Iterations, force evaluations = 2 23

MPI task timing breakdown:
Section |  min time  |  avg time  |  max time  |%varavg| %total
---------------------------------------------------------------
Pair    | 0.023318   | 0.025661   | 0.027106   |   0.6 | 38.06
Kspace  | 0.037368   | 0.038434   | 0.039084   |   0.3 | 57.00
Neigh   | 0          | 0          | 0          |   0.0 |  0.00
Comm    | 0.0021646  | 0.0030259  | 0.0047367  |   1.1 |  4.49
Output  | 0          | 0          | 0          |   0.0 |  0.00
Modify  | 0          | 0          | 0          |   0.0 |  0.00
Other   |            | 0.0003064  |            |       |  0.45

Nlocal:    84 ave 87 max 78 min
Histogram: 1 0 0 0 0 3 2 4 1 1
Nghost:    2598.83 ave 2626 max 2573 min
Histogram: 2 1 1 0 3 0 2 1 1 1
Neighs:    18628.5 ave 19345 max 17214 min
Histogram: 1 0 0 0 1 2 1 4 1 2

Total # of neighbors = 223542
Ave neighs/atom = 221.768
Neighbor list builds = 0
Dangerous builds = 0
  triclinic box = (-0.0194211 0 0) to (23.3201 23.3007 23.3007) with tilt (0 0 0)
WARNING: Resetting reneighboring criteria during minimization (../min.cpp:168)
Ewald initialization ...
  G vector (1/distance) = 0.365044
  estimated absolute RMS force accuracy = 1.94944e-05
  estimated relative force accuracy = 1.35381e-06
  KSpace vectors: actual max1d max3d = 2084 10 4630
                  kxmax kymax kzmax  = 10 10 10
Memory usage per processor = 4.56148 Mbytes
Step Temp E_pair E_mol TotEng Press 
      49           10   -18274.311            0   -18273.009   -11983.917 
      50           10   -18274.318            0   -18273.016   -11645.781 
      63           10   -18274.328            0   -18273.026   -10832.867 
Loop time of 0.185042 on 12 procs for 14 steps with 1008 atoms

98.8% CPU use with 12 MPI tasks x no OpenMP threads

Minimization stats:
  Stopping criterion = linesearch alpha is zero
  Energy initial, next-to-last, final = 
        -18274.3109241     -18274.3277218     -18274.3277218
  Force two-norm initial, final = 0.593099 0.0760431
  Force max component initial, final = 0.049981 0.00625218
  Final line search alpha, max atom move = 1.90735e-06 1.19251e-08
  Iterations, force evaluations = 14 65

MPI task timing breakdown:
Section |  min time  |  avg time  |  max time  |%varavg| %total
---------------------------------------------------------------
Pair    | 0.063634   | 0.070294   | 0.073948   |   0.9 | 37.99
Kspace  | 0.10326    | 0.10553    | 0.10741    |   0.4 | 57.03
Neigh   | 0          | 0          | 0          |   0.0 |  0.00
Comm    | 0.0060284  | 0.008269   | 0.01308    |   1.9 |  4.47
Output  | 1.7881e-05 | 1.9213e-05 | 2.1935e-05 |   0.0 |  0.01
Modify  | 0          | 0          | 0          |   0.0 |  0.00
Other   |            | 0.0009276  |            |       |  0.50

Nlocal:    84 ave 87 max 78 min
Histogram: 1 0 0 0 0 3 2 4 1 1
Nghost:    2597.42 ave 2624 max 2571 min
Histogram: 2 0 2 0 2 1 2 1 1 1
Neighs:    18599.4 ave 19316 max 17184 min
Histogram: 1 0 0 0 1 2 1 4 1 2

Total # of neighbors = 223193
Ave neighs/atom = 221.422
Neighbor list builds = 0
Dangerous builds = 0
  triclinic box = (-0.0388306 0 0) to (23.3395 23.3007 23.3007) with tilt (0 0 0)
WARNING: Resetting reneighboring criteria during minimization (../min.cpp:168)
Ewald initialization ...
  G vector (1/distance) = 0.365032
  estimated absolute RMS force accuracy = 1.95788e-05
  estimated relative force accuracy = 1.35968e-06
  KSpace vectors: actual max1d max3d = 2084 10 4630
                  kxmax kymax kzmax  = 10 10 10
Memory usage per processor = 4.56148 Mbytes
Step Temp E_pair E_mol TotEng Press 
      63           10   -18274.045            0   -18272.743   -15436.316 
      80           10   -18274.109            0   -18272.808   -13114.719 
Loop time of 0.207196 on 12 procs for 17 steps with 1008 atoms

99.3% CPU use with 12 MPI tasks x no OpenMP threads

Minimization stats:
  Stopping criterion = linesearch alpha is zero
  Energy initial, next-to-last, final = 
        -18274.0449913     -18274.1091984     -18274.1091984
  Force two-norm initial, final = 1.17804 0.111415
  Force max component initial, final = 0.0989495 0.0096963
  Final line search alpha, max atom move = 9.53674e-07 9.24711e-09
  Iterations, force evaluations = 17 73

MPI task timing breakdown:
Section |  min time  |  avg time  |  max time  |%varavg| %total
---------------------------------------------------------------
Pair    | 0.071361   | 0.078831   | 0.082763   |   1.0 | 38.05
Kspace  | 0.11567    | 0.11806    | 0.12004    |   0.4 | 56.98
Neigh   | 0          | 0          | 0          |   0.0 |  0.00
Comm    | 0.0066831  | 0.0093055  | 0.014809   |   2.1 |  4.49
Output  | 0          | 0          | 0          |   0.0 |  0.00
Modify  | 0          | 0          | 0          |   0.0 |  0.00
Other   |            | 0.001001   |            |       |  0.48

Nlocal:    84 ave 87 max 78 min
Histogram: 1 0 0 0 0 3 2 4 1 1
Nghost:    2593.67 ave 2620 max 2569 min
Histogram: 2 0 2 0 3 0 2 1 1 1
Neighs:    18568.8 ave 19293 max 17148 min
Histogram: 1 0 0 0 1 2 1 4 2 1

Total # of neighbors = 222825
Ave neighs/atom = 221.057
Neighbor list builds = 0
Dangerous builds = 0
  triclinic box = (-0.0582517 0 0) to (23.3589 23.3007 23.3007) with tilt (0 0 0)
WARNING: Resetting reneighboring criteria during minimization (../min.cpp:168)
Ewald initialization ...
  G vector (1/distance) = 0.365021
  estimated absolute RMS force accuracy = 1.96704e-05
  estimated relative force accuracy = 1.36604e-06
  KSpace vectors: actual max1d max3d = 2084 10 4630
                  kxmax kymax kzmax  = 10 10 10
Memory usage per processor = 4.56148 Mbytes
Step Temp E_pair E_mol TotEng Press 
      80           10   -18273.692            0    -18272.39   -18852.842 
     100           10   -18273.841            0    -18272.54   -15368.554 
     102           10   -18273.843            0   -18272.541   -15362.052 
Loop time of 0.235118 on 12 procs for 22 steps with 1008 atoms

99.2% CPU use with 12 MPI tasks x no OpenMP threads

Minimization stats:
  Stopping criterion = linesearch alpha is zero
  Energy initial, next-to-last, final = 
        -18273.6920487     -18273.8425344     -18273.8425344
  Force two-norm initial, final = 1.75684 0.10581
  Force max component initial, final = 0.147008 0.0101928
  Final line search alpha, max atom move = 9.53674e-07 9.72066e-09
  Iterations, force evaluations = 22 83

MPI task timing breakdown:
Section |  min time  |  avg time  |  max time  |%varavg| %total
---------------------------------------------------------------
Pair    | 0.080968   | 0.089307   | 0.093874   |   1.1 | 37.98
Kspace  | 0.13174    | 0.13403    | 0.13616    |   0.4 | 57.01
Neigh   | 0          | 0          | 0          |   0.0 |  0.00
Comm    | 0.0075765  | 0.010581   | 0.016811   |   2.2 |  4.50
Output  | 1.9073e-05 | 2.0107e-05 | 2.1935e-05 |   0.0 |  0.01
Modify  | 0          | 0          | 0          |   0.0 |  0.00
Other   |            | 0.001177   |            |       |  0.50

Nlocal:    84 ave 87 max 78 min
Histogram: 1 0 0 0 0 3 2 4 1 1
Nghost:    2590.92 ave 2620 max 2566 min
Histogram: 2 2 1 0 1 1 2 1 1 1
Neighs:    18537.9 ave 19265 max 17119 min
Histogram: 1 0 0 0 1 2 1 4 2 1

Total # of neighbors = 222455
Ave neighs/atom = 220.689
Neighbor list builds = 0
Dangerous builds = 0
  triclinic box = (0 0.0582517 0) to (23.3007 23.2424 23.3007) with tilt (0 0 0)
WARNING: Resetting reneighboring criteria during minimization (../min.cpp:168)
Ewald initialization ...
  G vector (1/distance) = 0.365089
  estimated absolute RMS force accuracy = 1.92191e-05
  estimated relative force accuracy = 1.33469e-06
  KSpace vectors: actual max1d max3d = 2088 10 4630
                  kxmax kymax kzmax  = 10 10 10
Memory usage per processor = 4.56148 Mbytes
Step Temp E_pair E_mol TotEng Press 
     102           10   -18274.612            0    -18273.31     2151.029 
     125           10   -18274.752            0   -18273.451   -1236.4645 
Loop time of 0.315007 on 12 procs for 23 steps with 1008 atoms

99.5% CPU use with 12 MPI tasks x no OpenMP threads

Minimization stats:
  Stopping criterion = linesearch alpha is zero
  Energy initial, next-to-last, final = 
        -18274.6118592     -18274.7524882     -18274.7524882
  Force two-norm initial, final = 1.75998 0.0771967
  Force max component initial, final = 0.163185 0.00673298
  Final line search alpha, max atom move = 1.90735e-06 1.28421e-08
  Iterations, force evaluations = 23 111

MPI task timing breakdown:
Section |  min time  |  avg time  |  max time  |%varavg| %total
---------------------------------------------------------------
Pair    | 0.10854    | 0.12007    | 0.12587    |   1.2 | 38.12
Kspace  | 0.17598    | 0.17912    | 0.18232    |   0.5 | 56.86
Neigh   | 0          | 0          | 0          |   0.0 |  0.00
Comm    | 0.010358   | 0.014298   | 0.022701   |   2.5 |  4.54
Output  | 0          | 0          | 0          |   0.0 |  0.00
Modify  | 0          | 0          | 0          |   0.0 |  0.00
Other   |            | 0.001514   |            |       |  0.48

Nlocal:    84 ave 87 max 78 min
Histogram: 1 0 0 0 0 3 2 4 1 1
Nghost:    2614.33 ave 2645 max 2586 min
Histogram: 1 2 1 1 1 1 2 1 1 1
Neighs:    18722.2 ave 19432 max 17298 min
Histogram: 1 0 0 0 1 2 1 4 1 2

Total # of neighbors = 224667
Ave neighs/atom = 222.884
Neighbor list builds = 0
Dangerous builds = 0
  triclinic box = (0 0.0388306 0) to (23.3007 23.2618 23.3007) with tilt (0 0 0)
WARNING: Resetting reneighboring criteria during minimization (../min.cpp:168)
Ewald initialization ...
  G vector (1/distance) = 0.365078
  estimated absolute RMS force accuracy = 1.92793e-05
  estimated relative force accuracy = 1.33888e-06
  KSpace vectors: actual max1d max3d = 2084 10 4630
                  kxmax kymax kzmax  = 10 10 10
Memory usage per processor = 4.56148 Mbytes
Step Temp E_pair E_mol TotEng Press 
     125           10    -18274.66            0   -18273.358   -1435.9508 
     135           10   -18274.718            0   -18273.416   -3534.2374 
Loop time of 0.179874 on 12 procs for 10 steps with 1008 atoms

99.7% CPU use with 12 MPI tasks x no OpenMP threads

Minimization stats:
  Stopping criterion = linesearch alpha is zero
  Energy initial, next-to-last, final = 
        -18274.6598372     -18274.7180695     -18274.7180695
  Force two-norm initial, final = 1.16632 0.20174
  Force max component initial, final = 0.108018 0.0161325
  Final line search alpha, max atom move = 2.38419e-07 3.8463e-09
  Iterations, force evaluations = 10 63

MPI task timing breakdown:
Section |  min time  |  avg time  |  max time  |%varavg| %total
---------------------------------------------------------------
Pair    | 0.06212    | 0.068652   | 0.07168    |   0.9 | 38.17
Kspace  | 0.10049    | 0.10226    | 0.10415    |   0.4 | 56.85
Neigh   | 0          | 0          | 0          |   0.0 |  0.00
Comm    | 0.0058711  | 0.0081209  | 0.012793   |   1.9 |  4.51
Output  | 0          | 0          | 0          |   0.0 |  0.00
Modify  | 0          | 0          | 0          |   0.0 |  0.00
Other   |            | 0.0008418  |            |       |  0.47

Nlocal:    84 ave 87 max 78 min
Histogram: 1 0 0 0 0 3 2 4 1 1
Nghost:    2610 ave 2638 max 2584 min
Histogram: 2 1 1 0 2 1 2 1 1 1
Neighs:    18689.3 ave 19402 max 17270 min
Histogram: 1 0 0 0 1 2 1 4 1 2

Total # of neighbors = 224272
Ave neighs/atom = 222.492
Neighbor list builds = 0
Dangerous builds = 0
  triclinic box = (0 0.0194211 0) to (23.3007 23.2813 23.3007) with tilt (0 0 0)
WARNING: Resetting reneighboring criteria during minimization (../min.cpp:168)
Ewald initialization ...
  G vector (1/distance) = 0.365066
  estimated absolute RMS force accuracy = 1.9345e-05
  estimated relative force accuracy = 1.34344e-06
  KSpace vectors: actual max1d max3d = 2084 10 4630
                  kxmax kymax kzmax  = 10 10 10
Memory usage per processor = 4.56148 Mbytes
Step Temp E_pair E_mol TotEng Press 
     135           10   -18274.621            0    -18273.32   -4982.5102 
     148           10   -18274.636            0   -18273.334   -6046.6594 
Loop time of 0.386916 on 12 procs for 13 steps with 1008 atoms

99.7% CPU use with 12 MPI tasks x no OpenMP threads

Minimization stats:
  Stopping criterion = linesearch alpha is zero
  Energy initial, next-to-last, final = 
        -18274.6213915     -18274.6357092     -18274.6357092
  Force two-norm initial, final = 0.579472 0.0685745
  Force max component initial, final = 0.0537252 0.0103804
  Final line search alpha, max atom move = 1.90735e-06 1.9799e-08
  Iterations, force evaluations = 13 137

MPI task timing breakdown:
Section |  min time  |  avg time  |  max time  |%varavg| %total
---------------------------------------------------------------
Pair    | 0.13425    | 0.14768    | 0.15501    |   1.3 | 38.17
Kspace  | 0.21534    | 0.22017    | 0.22412    |   0.5 | 56.90
Neigh   | 0          | 0          | 0          |   0.0 |  0.00
Comm    | 0.012496   | 0.017381   | 0.027647   |   2.8 |  4.49
Output  | 0          | 0          | 0          |   0.0 |  0.00
Modify  | 0          | 0          | 0          |   0.0 |  0.00
Other   |            | 0.001681   |            |       |  0.43

Nlocal:    84 ave 87 max 78 min
Histogram: 1 0 0 0 0 3 2 4 1 1
Nghost:    2603.58 ave 2628 max 2579 min
Histogram: 2 0 2 0 2 1 0 3 1 1
Neighs:    18659.4 ave 19380 max 17236 min
Histogram: 1 0 0 0 1 2 1 4 1 2

Total # of neighbors = 223913
Ave neighs/atom = 222.136
Neighbor list builds = 0
Dangerous builds = 0
  triclinic box = (0 0 0) to (23.3007 23.3007 23.3007) with tilt (0 0 0)
WARNING: Resetting reneighboring criteria during minimization (../min.cpp:168)
Ewald initialization ...
  G vector (1/distance) = 0.365055
  estimated absolute RMS force accuracy = 1.94166e-05
  estimated relative force accuracy = 1.34841e-06
  KSpace vectors: actual max1d max3d = 2084 10 4630
                  kxmax kymax kzmax  = 10 10 10
Memory usage per processor = 4.56148 Mbytes
Step Temp E_pair E_mol TotEng Press 
     148           10   -18274.498            0   -18273.197   -8493.3274 
     150           10   -18274.498            0   -18273.197   -8491.0884 
Loop time of 0.0675415 on 12 procs for 2 steps with 1008 atoms

99.6% CPU use with 12 MPI tasks x no OpenMP threads

Minimization stats:
  Stopping criterion = linesearch alpha is zero
  Energy initial, next-to-last, final = 
        -18274.4983679     -18274.4983716     -18274.4983716
  Force two-norm initial, final = 0.00470327 0.00314871
  Force max component initial, final = 0.000320297 0.000236233
  Final line search alpha, max atom move = 0.000976562 2.30696e-07
  Iterations, force evaluations = 2 23

MPI task timing breakdown:
Section |  min time  |  avg time  |  max time  |%varavg| %total
---------------------------------------------------------------
Pair    | 0.02339    | 0.025759   | 0.027044   |   0.6 | 38.14
Kspace  | 0.03775    | 0.038448   | 0.039121   |   0.2 | 56.93
Neigh   | 0          | 0          | 0          |   0.0 |  0.00
Comm    | 0.0021813  | 0.0030225  | 0.0047331  |   1.1 |  4.47
Output  | 0          | 0          | 0          |   0.0 |  0.00
Modify  | 0          | 0          | 0          |   0.0 |  0.00
Other   |            | 0.0003116  |            |       |  0.46

Nlocal:    84 ave 87 max 78 min
Histogram: 1 0 0 0 0 3 2 4 1 1
Nghost:    2598.83 ave 2626 max 2573 min
Histogram: 2 1 1 0 3 0 2 1 1 1
Neighs:    18628.5 ave 19345 max 17214 min
Histogram: 1 0 0 0 1 2 1 4 1 2

Total # of neighbors = 223542
Ave neighs/atom = 221.768
Neighbor list builds = 0
Dangerous builds = 0
  triclinic box = (0 -0.0194211 0) to (23.3007 23.3201 23.3007) with tilt (0 0 0)
WARNING: Resetting reneighboring criteria during minimization (../min.cpp:168)
Ewald initialization ...
  G vector (1/distance) = 0.365044
  estimated absolute RMS force accuracy = 1.94944e-05
  estimated relative force accuracy = 1.35381e-06
  KSpace vectors: actual max1d max3d = 2084 10 4630
                  kxmax kymax kzmax  = 10 10 10
Memory usage per processor = 4.56148 Mbytes
Step Temp E_pair E_mol TotEng Press 
     150           10   -18274.291            0    -18272.99   -11966.732 
     164           10   -18274.309            0   -18273.007   -10879.753 
Loop time of 0.274411 on 12 procs for 14 steps with 1008 atoms

99.7% CPU use with 12 MPI tasks x no OpenMP threads

Minimization stats:
  Stopping criterion = linesearch alpha is zero
  Energy initial, next-to-last, final = 
        -18274.2913775     -18274.3090219     -18274.3090219
  Force two-norm initial, final = 0.57602 0.0598381
  Force max component initial, final = 0.0528842 0.00835645
  Final line search alpha, max atom move = 1.90735e-06 1.59387e-08
  Iterations, force evaluations = 14 97

MPI task timing breakdown:
Section |  min time  |  avg time  |  max time  |%varavg| %total
---------------------------------------------------------------
Pair    | 0.094248   | 0.1046     | 0.10974    |   1.1 | 38.12
Kspace  | 0.15343    | 0.15622    | 0.15929    |   0.5 | 56.93
Neigh   | 0          | 0          | 0          |   0.0 |  0.00
Comm    | 0.0088716  | 0.012334   | 0.01967    |   2.4 |  4.49
Output  | 0          | 0          | 0          |   0.0 |  0.00
Modify  | 0          | 0          | 0          |   0.0 |  0.00
Other   |            | 0.001262   |            |       |  0.46

Nlocal:    84 ave 87 max 78 min
Histogram: 1 0 0 0 0 3 2 4 1 1
Nghost:    2594.83 ave 2621 max 2570 min
Histogram: 2 1 1 0 2 1 2 1 1 1
Neighs:    18597.9 ave 19317 max 17189 min
Histogram: 1 0 0 0 1 2 2 3 2 1

Total # of neighbors = 223175
Ave neighs/atom = 221.404
Neighbor list builds = 0
Dangerous builds = 0
  triclinic box = (0 -0.0388306 0) to (23.3007 23.3395 23.3007) with tilt (0 0 0)
WARNING: Resetting reneighboring criteria during minimization (../min.cpp:168)
Ewald initialization ...
  G vector (1/distance) = 0.365032
  estimated absolute RMS force accuracy = 1.95788e-05
  estimated relative force accuracy = 1.35968e-06
  KSpace vectors: actual max1d max3d = 2084 10 4630
                  kxmax kymax kzmax  = 10 10 10
Memory usage per processor = 4.56148 Mbytes
Step Temp E_pair E_mol TotEng Press 
     164           10   -18274.003            0   -18272.701   -15401.419 
     181           10   -18274.066            0   -18272.764   -13204.912 
Loop time of 0.207862 on 12 procs for 17 steps with 1008 atoms

99.8% CPU use with 12 MPI tasks x no OpenMP threads

Minimization stats:
  Stopping criterion = linesearch alpha is zero
  Energy initial, next-to-last, final = 
        -18274.0028804     -18274.0658135     -18274.0658135
  Force two-norm initial, final = 1.1441 0.0869301
  Force max component initial, final = 0.10513 0.00589075
  Final line search alpha, max atom move = 9.53674e-07 5.61786e-09
  Iterations, force evaluations = 17 73

MPI task timing breakdown:
Section |  min time  |  avg time  |  max time  |%varavg| %total
---------------------------------------------------------------
Pair    | 0.071392   | 0.078673   | 0.082525   |   1.0 | 37.85
Kspace  | 0.11584    | 0.11868    | 0.12048    |   0.4 | 57.10
Neigh   | 0          | 0          | 0          |   0.0 |  0.00
Comm    | 0.0068276  | 0.0094706  | 0.015017   |   2.1 |  4.56
Output  | 0          | 0          | 0          |   0.0 |  0.00
Modify  | 0          | 0          | 0          |   0.0 |  0.00
Other   |            | 0.00104    |            |       |  0.50

Nlocal:    84 ave 87 max 78 min
Histogram: 1 0 0 0 0 3 2 4 1 1
Nghost:    2591.83 ave 2617 max 2566 min
Histogram: 1 2 1 0 0 3 1 3 0 1
Neighs:    18568.3 ave 19287 max 17159 min
Histogram: 1 0 0 0 1 2 1 4 2 1

Total # of neighbors = 222820
Ave neighs/atom = 221.052
Neighbor list builds = 0
Dangerous builds = 0
  triclinic box = (0 -0.0582517 0) to (23.3007 23.3589 23.3007) with tilt (0 0 0)
WARNING: Resetting reneighboring criteria during minimization (../min.cpp:168)
Ewald initialization ...
  G vector (1/distance) = 0.365021
  estimated absolute RMS force accuracy = 1.96704e-05
  estimated relative force accuracy = 1.36604e-06
  KSpace vectors: actual max1d max3d = 2084 10 4630
                  kxmax kymax kzmax  = 10 10 10
Memory usage per processor = 4.56148 Mbytes
Step Temp E_pair E_mol TotEng Press 
     181           10   -18273.634            0   -18272.333   -18801.997 
     199           10   -18273.774            0   -18272.473   -15508.467 
Loop time of 0.219116 on 12 procs for 18 steps with 1008 atoms

99.9% CPU use with 12 MPI tasks x no OpenMP threads

Minimization stats:
  Stopping criterion = linesearch alpha is zero
  Energy initial, next-to-last, final = 
        -18273.6344063      -18273.774417      -18273.774417
  Force two-norm initial, final = 1.70656 0.116187
  Force max component initial, final = 0.156626 0.00874618
  Final line search alpha, max atom move = 4.76837e-07 4.1705e-09
  Iterations, force evaluations = 18 77

MPI task timing breakdown:
Section |  min time  |  avg time  |  max time  |%varavg| %total
---------------------------------------------------------------
Pair    | 0.074704   | 0.082704   | 0.08763    |   1.1 | 37.74
Kspace  | 0.12333    | 0.12554    | 0.12778    |   0.4 | 57.30
Neigh   | 0          | 0          | 0          |   0.0 |  0.00
Comm    | 0.0070329  | 0.0097892  | 0.015568   |   2.1 |  4.47
Output  | 0          | 0          | 0          |   0.0 |  0.00
Modify  | 0          | 0          | 0          |   0.0 |  0.00
Other   |            | 0.001077   |            |       |  0.49

Nlocal:    84 ave 87 max 78 min
Histogram: 1 0 0 0 0 3 2 4 1 1
Nghost:    2589.33 ave 2615 max 2565 min
Histogram: 2 1 1 0 1 2 1 3 0 1
Neighs:    18535.6 ave 19269 max 17126 min
Histogram: 1 0 0 0 1 2 2 3 2 1

Total # of neighbors = 222427
Ave neighs/atom = 220.662
Neighbor list builds = 0
Dangerous builds = 0
  triclinic box = (0 0 0.0582517) to (23.3007 23.3007 23.2424) with tilt (0 0 0)
WARNING: Resetting reneighboring criteria during minimization (../min.cpp:168)
Ewald initialization ...
  G vector (1/distance) = 0.365089
  estimated absolute RMS force accuracy = 1.92191e-05
  estimated relative force accuracy = 1.33469e-06
  KSpace vectors: actual max1d max3d = 2088 10 4630
                  kxmax kymax kzmax  = 10 10 10
Memory usage per processor = 4.56148 Mbytes
Step Temp E_pair E_mol TotEng Press 
     199           10   -18274.486            0   -18273.184    2000.3223 
     200           10   -18274.544            0   -18273.243    802.60957 
     213           10   -18274.628            0   -18273.327   -1483.6436 
Loop time of 0.202936 on 12 procs for 14 steps with 1008 atoms

99.8% CPU use with 12 MPI tasks x no OpenMP threads

Minimization stats:
  Stopping criterion = linesearch alpha is zero
  Energy initial, next-to-last, final = 
        -18274.4859113     -18274.6284971     -18274.6284971
  Force two-norm initial, final = 1.88962 0.211835
  Force max component initial, final = 0.162329 0.0332233
  Final line search alpha, max atom move = 2.38419e-07 7.92105e-09
  Iterations, force evaluations = 14 71

MPI task timing breakdown:
Section |  min time  |  avg time  |  max time  |%varavg| %total
---------------------------------------------------------------
Pair    | 0.070193   | 0.077229   | 0.081473   |   0.9 | 38.06
Kspace  | 0.1132     | 0.11554    | 0.11718    |   0.4 | 56.93
Neigh   | 0          | 0          | 0          |   0.0 |  0.00
Comm    | 0.0066068  | 0.0091759  | 0.014623   |   2.1 |  4.52
Output  | 1.7166e-05 | 1.8438e-05 | 2.0981e-05 |   0.0 |  0.01
Modify  | 0          | 0          | 0          |   0.0 |  0.00
Other   |            | 0.0009724  |            |       |  0.48

Nlocal:    84 ave 87 max 78 min
Histogram: 1 0 0 0 0 3 2 4 1 1
Nghost:    2610.83 ave 2632 max 2587 min
Histogram: 1 0 3 1 0 2 1 1 1 2
Neighs:    18723.2 ave 19441 max 17306 min
Histogram: 1 0 0 0 1 2 1 4 2 1

Total # of neighbors = 224679
Ave neighs/atom = 222.896
Neighbor list builds = 0
Dangerous builds = 0
  triclinic box = (0 0 0.0388306) to (23.3007 23.3007 23.2618) with tilt (0 0 0)
WARNING: Resetting reneighboring criteria during minimization (../min.cpp:168)
Ewald initialization ...
  G vector (1/distance) = 0.365078
  estimated absolute RMS force accuracy = 1.92793e-05
  estimated relative force accuracy = 1.33888e-06
  KSpace vectors: actual max1d max3d = 2084 10 4630
                  kxmax kymax kzmax  = 10 10 10
Memory usage per processor = 4.56148 Mbytes
Step Temp E_pair E_mol TotEng Press 
     213           10   -18274.573            0   -18273.272   -1535.4082 
     225           10   -18274.634            0   -18273.333   -3792.1861 
Loop time of 0.19075 on 12 procs for 12 steps with 1008 atoms

99.6% CPU use with 12 MPI tasks x no OpenMP threads

Minimization stats:
  Stopping criterion = linesearch alpha is zero
  Energy initial, next-to-last, final = 
        -18274.5734212     -18274.6341926     -18274.6341926
  Force two-norm initial, final = 1.25211 0.165515
  Force max component initial, final = 0.107241 0.0139161
  Final line search alpha, max atom move = 2.38419e-07 3.31785e-09
  Iterations, force evaluations = 12 67

MPI task timing breakdown:
Section |  min time  |  avg time  |  max time  |%varavg| %total
---------------------------------------------------------------
Pair    | 0.065989   | 0.072721   | 0.076395   |   0.9 | 38.12
Kspace  | 0.10602    | 0.10857    | 0.11024    |   0.4 | 56.91
Neigh   | 0          | 0          | 0          |   0.0 |  0.00
Comm    | 0.0061345  | 0.0085491  | 0.013635   |   2.0 |  4.48
Output  | 0          | 0          | 0          |   0.0 |  0.00
Modify  | 0          | 0          | 0          |   0.0 |  0.00
Other   |            | 0.0009151  |            |       |  0.48

Nlocal:    84 ave 87 max 78 min
Histogram: 1 0 0 0 0 3 2 4 1 1
Nghost:    2608.33 ave 2632 max 2584 min
Histogram: 1 2 1 0 1 3 0 1 2 1
Neighs:    18692.2 ave 19403 max 17284 min
Histogram: 1 0 0 0 1 2 1 4 2 1

Total # of neighbors = 224307
Ave neighs/atom = 222.527
Neighbor list builds = 0
Dangerous builds = 0
  triclinic box = (0 0 0.0194211) to (23.3007 23.3007 23.2813) with tilt (0 0 0)
WARNING: Resetting reneighboring criteria during minimization (../min.cpp:168)
Ewald initialization ...
  G vector (1/distance) = 0.365066
  estimated absolute RMS force accuracy = 1.9345e-05
  estimated relative force accuracy = 1.34344e-06
  KSpace vectors: actual max1d max3d = 2084 10 4630
                  kxmax kymax kzmax  = 10 10 10
Memory usage per processor = 4.56148 Mbytes
Step Temp E_pair E_mol TotEng Press 
     225           10   -18274.576            0   -18273.274   -5031.3958 
     233           10   -18274.592            0    -18273.29   -6069.6609 
Loop time of 0.162441 on 12 procs for 8 steps with 1008 atoms

99.9% CPU use with 12 MPI tasks x no OpenMP threads

Minimization stats:
  Stopping criterion = linesearch alpha is zero
  Energy initial, next-to-last, final = 
        -18274.5758524     -18274.5920033     -18274.5920033
  Force two-norm initial, final = 0.622094 0.132362
  Force max component initial, final = 0.0532049 0.01329
  Final line search alpha, max atom move = 4.76837e-07 6.33717e-09
  Iterations, force evaluations = 8 57

MPI task timing breakdown:
Section |  min time  |  avg time  |  max time  |%varavg| %total
---------------------------------------------------------------
Pair    | 0.05618    | 0.062033   | 0.064967   |   0.9 | 38.19
Kspace  | 0.090654   | 0.092345   | 0.093895   |   0.3 | 56.85
Neigh   | 0          | 0          | 0          |   0.0 |  0.00
Comm    | 0.005245   | 0.0073021  | 0.011646   |   1.8 |  4.50
Output  | 0          | 0          | 0          |   0.0 |  0.00
Modify  | 0          | 0          | 0          |   0.0 |  0.00
Other   |            | 0.0007608  |            |       |  0.47

Nlocal:    84 ave 87 max 78 min
Histogram: 1 0 0 0 0 3 2 4 1 1
Nghost:    2601.08 ave 2628 max 2574 min
Histogram: 1 1 2 0 1 2 2 1 1 1
Neighs:    18660 ave 19374 max 17250 min
Histogram: 1 0 0 0 1 2 1 4 1 2

Total # of neighbors = 223920
Ave neighs/atom = 222.143
Neighbor list builds = 0
Dangerous builds = 0
  triclinic box = (0 0 0) to (23.3007 23.3007 23.3007) with tilt (0 0 0)
WARNING: Resetting reneighboring criteria during minimization (../min.cpp:168)
Ewald initialization ...
  G vector (1/distance) = 0.365055
  estimated absolute RMS force accuracy = 1.94166e-05
  estimated relative force accuracy = 1.34841e-06
  KSpace vectors: actual max1d max3d = 2084 10 4630
                  kxmax kymax kzmax  = 10 10 10
Memory usage per processor = 4.56148 Mbytes
Step Temp E_pair E_mol TotEng Press 
     233           10   -18274.498            0   -18273.197   -8493.3274 
     235           10   -18274.498            0   -18273.197   -8491.0884 
Loop time of 0.0672657 on 12 procs for 2 steps with 1008 atoms

99.5% CPU use with 12 MPI tasks x no OpenMP threads

Minimization stats:
  Stopping criterion = linesearch alpha is zero
  Energy initial, next-to-last, final = 
        -18274.4983679     -18274.4983716     -18274.4983716
  Force two-norm initial, final = 0.00470327 0.00314871
  Force max component initial, final = 0.000320297 0.000236233
  Final line search alpha, max atom move = 0.000976562 2.30696e-07
  Iterations, force evaluations = 2 23

MPI task timing breakdown:
Section |  min time  |  avg time  |  max time  |%varavg| %total
---------------------------------------------------------------
Pair    | 0.023111   | 0.025614   | 0.026936   |   0.6 | 38.08
Kspace  | 0.037728   | 0.038328   | 0.039039   |   0.2 | 56.98
Neigh   | 0          | 0          | 0          |   0.0 |  0.00
Comm    | 0.0021687  | 0.0030162  | 0.0048106  |   1.2 |  4.48
Output  | 0          | 0          | 0          |   0.0 |  0.00
Modify  | 0          | 0          | 0          |   0.0 |  0.00
Other   |            | 0.0003083  |            |       |  0.46

Nlocal:    84 ave 87 max 78 min
Histogram: 1 0 0 0 0 3 2 4 1 1
Nghost:    2598.83 ave 2626 max 2573 min
Histogram: 2 1 1 0 3 0 2 1 1 1
Neighs:    18628.5 ave 19345 max 17214 min
Histogram: 1 0 0 0 1 2 1 4 1 2

Total # of neighbors = 223542
Ave neighs/atom = 221.768
Neighbor list builds = 0
Dangerous builds = 0
  triclinic box = (0 0 -0.0194211) to (23.3007 23.3007 23.3201) with tilt (0 0 0)
WARNING: Resetting reneighboring criteria during minimization (../min.cpp:168)
Ewald initialization ...
  G vector (1/distance) = 0.365044
  estimated absolute RMS force accuracy = 1.94944e-05
  estimated relative force accuracy = 1.35381e-06
  KSpace vectors: actual max1d max3d = 2084 10 4630
                  kxmax kymax kzmax  = 10 10 10
Memory usage per processor = 4.56148 Mbytes
Step Temp E_pair E_mol TotEng Press 
     235           10   -18274.338            0   -18273.037   -11918.665 
     245           10   -18274.354            0   -18273.052   -10820.239 
Loop time of 0.168696 on 12 procs for 10 steps with 1008 atoms

99.9% CPU use with 12 MPI tasks x no OpenMP threads

Minimization stats:
  Stopping criterion = linesearch alpha is zero
  Energy initial, next-to-last, final = 
        -18274.3384762     -18274.3538821     -18274.3538821
  Force two-norm initial, final = 0.618067 0.102472
  Force max component initial, final = 0.0521074 0.00787387
  Final line search alpha, max atom move = 9.53674e-07 7.50911e-09
  Iterations, force evaluations = 10 59

MPI task timing breakdown:
Section |  min time  |  avg time  |  max time  |%varavg| %total
---------------------------------------------------------------
Pair    | 0.057738   | 0.063909   | 0.067752   |   0.9 | 37.88
Kspace  | 0.094713   | 0.096429   | 0.098153   |   0.3 | 57.16
Neigh   | 0          | 0          | 0          |   0.0 |  0.00
Comm    | 0.0054326  | 0.0075563  | 0.012008   |   1.9 |  4.48
Output  | 0          | 0          | 0          |   0.0 |  0.00
Modify  | 0          | 0          | 0          |   0.0 |  0.00
Other   |            | 0.0008008  |            |       |  0.47

Nlocal:    84 ave 87 max 78 min
Histogram: 1 0 0 0 0 3 2 4 1 1
Nghost:    2594.58 ave 2623 max 2569 min
Histogram: 2 0 2 1 2 0 2 1 1 1
Neighs:    18598.7 ave 19312 max 17183 min
Histogram: 1 0 0 0 1 2 1 4 1 2

Total # of neighbors = 223184
Ave neighs/atom = 221.413
Neighbor list builds = 0
Dangerous builds = 0
  triclinic box = (0 0 -0.0388306) to (23.3007 23.3007 23.3395) with tilt (0 0 0)
WARNING: Resetting reneighboring criteria during minimization (../min.cpp:168)
Ewald initialization ...
  G vector (1/distance) = 0.365032
  estimated absolute RMS force accuracy = 1.95788e-05
  estimated relative force accuracy = 1.35968e-06
  KSpace vectors: actual max1d max3d = 2084 10 4630
                  kxmax kymax kzmax  = 10 10 10
Memory usage per processor = 4.56148 Mbytes
Step Temp E_pair E_mol TotEng Press 
     245           10   -18274.092            0    -18272.79   -15304.406 
     250           10   -18274.147            0   -18272.845   -13405.616 
     270           10    -18274.16            0   -18272.858   -12914.651 
Loop time of 0.247272 on 12 procs for 25 steps with 1008 atoms

100.0% CPU use with 12 MPI tasks x no OpenMP threads

Minimization stats:
  Stopping criterion = linesearch alpha is zero
  Energy initial, next-to-last, final = 
        -18274.0920693     -18274.1598223     -18274.1598223
  Force two-norm initial, final = 1.22759 0.0620974
  Force max component initial, final = 0.103201 0.00496308
  Final line search alpha, max atom move = 1.90735e-06 9.46633e-09
  Iterations, force evaluations = 25 87

MPI task timing breakdown:
Section |  min time  |  avg time  |  max time  |%varavg| %total
---------------------------------------------------------------
Pair    | 0.085177   | 0.093764   | 0.098866   |   1.1 | 37.92
Kspace  | 0.13795    | 0.14109    | 0.1431     |   0.4 | 57.06
Neigh   | 0          | 0          | 0          |   0.0 |  0.00
Comm    | 0.0079834  | 0.01112    | 0.017734   |   2.3 |  4.50
Output  | 2.0027e-05 | 2.0921e-05 | 2.3127e-05 |   0.0 |  0.01
Modify  | 0          | 0          | 0          |   0.0 |  0.00
Other   |            | 0.001279   |            |       |  0.52

Nlocal:    84 ave 87 max 78 min
Histogram: 1 0 0 0 0 3 2 4 1 1
Nghost:    2592.33 ave 2623 max 2563 min
Histogram: 2 0 0 3 1 1 2 2 0 1
Neighs:    18567.9 ave 19283 max 17151 min
Histogram: 1 0 0 0 1 2 1 4 1 2

Total # of neighbors = 222815
Ave neighs/atom = 221.047
Neighbor list builds = 0
Dangerous builds = 0
  triclinic box = (0 0 -0.0582517) to (23.3007 23.3007 23.3589) with tilt (0 0 0)
WARNING: Resetting reneighboring criteria during minimization (../min.cpp:168)
Ewald initialization ...
  G vector (1/distance) = 0.365021
  estimated absolute RMS force accuracy = 1.96704e-05
  estimated relative force accuracy = 1.36604e-06
  KSpace vectors: actual max1d max3d = 2084 10 4630
                  kxmax kymax kzmax  = 10 10 10
Memory usage per processor = 4.56148 Mbytes
Step Temp E_pair E_mol TotEng Press 
     270           10    -18273.77            0   -18272.468   -18657.464 
     292           10   -18273.919            0   -18272.617   -15122.785 
Loop time of 0.241149 on 12 procs for 22 steps with 1008 atoms

99.8% CPU use with 12 MPI tasks x no OpenMP threads

Minimization stats:
  Stopping criterion = linesearch alpha is zero
  Energy initial, next-to-last, final = 
        -18273.7695393     -18273.9186259     -18273.9186259
  Force two-norm initial, final = 1.83083 0.115783
  Force max component initial, final = 0.153536 0.0144722
  Final line search alpha, max atom move = 4.76837e-07 6.90087e-09
  Iterations, force evaluations = 22 85

MPI task timing breakdown:
Section |  min time  |  avg time  |  max time  |%varavg| %total
---------------------------------------------------------------
Pair    | 0.082756   | 0.091295   | 0.096335   |   1.0 | 37.86
Kspace  | 0.1353     | 0.13771    | 0.13986    |   0.4 | 57.10
Neigh   | 0          | 0          | 0          |   0.0 |  0.00
Comm    | 0.0078967  | 0.010938   | 0.017355   |   2.2 |  4.54
Output  | 0          | 0          | 0          |   0.0 |  0.00
Modify  | 0          | 0          | 0          |   0.0 |  0.00
Other   |            | 0.001211   |            |       |  0.50

Nlocal:    84 ave 87 max 78 min
Histogram: 1 0 0 0 0 3 2 4 1 1
Nghost:    2589.58 ave 2617 max 2562 min
Histogram: 2 0 0 3 1 1 2 0 2 1
Neighs:    18537.3 ave 19243 max 17121 min
Histogram: 1 0 0 0 1 2 1 4 1 2

Total # of neighbors = 222448
Ave neighs/atom = 220.683
Neighbor list builds = 0
Dangerous builds = 0
  triclinic box = (0 0 0) to (23.3007 23.3007 23.3007) with tilt (-0.116503 0 0)
WARNING: Resetting reneighboring criteria during minimization (../min.cpp:168)
Ewald initialization ...
  G vector (1/distance) = 0.365055
  estimated absolute RMS force accuracy = 1.94166e-05
  estimated relative force accuracy = 1.34841e-06
  KSpace vectors: actual max1d max3d = 2079 10 4630
                  kxmax kymax kzmax  = 10 10 10
Memory usage per processor = 4.56148 Mbytes
Step Temp E_pair E_mol TotEng Press 
     292           10    -18274.28            0   -18272.978   -8467.2092 
     300           10   -18274.328            0   -18273.026     -8420.85 
     313           10   -18274.334            0   -18273.032   -8376.5642 
Loop time of 0.224363 on 12 procs for 21 steps with 1008 atoms

99.7% CPU use with 12 MPI tasks x no OpenMP threads

Minimization stats:
  Stopping criterion = linesearch alpha is zero
  Energy initial, next-to-last, final = 
        -18274.2799552     -18274.3336579     -18274.3336579
  Force two-norm initial, final = 1.20364 0.0594042
  Force max component initial, final = 0.127989 0.00515907
  Final line search alpha, max atom move = 1.90735e-06 9.84014e-09
  Iterations, force evaluations = 21 79

MPI task timing breakdown:
Section |  min time  |  avg time  |  max time  |%varavg| %total
---------------------------------------------------------------
Pair    | 0.077478   | 0.085302   | 0.089913   |   1.0 | 38.02
Kspace  | 0.12467    | 0.12774    | 0.12963    |   0.4 | 56.94
Neigh   | 0          | 0          | 0          |   0.0 |  0.00
Comm    | 0.0072963  | 0.010147   | 0.016098   |   2.1 |  4.52
Output  | 1.8835e-05 | 1.9928e-05 | 2.3127e-05 |   0.0 |  0.01
Modify  | 0          | 0          | 0          |   0.0 |  0.00
Other   |            | 0.001152   |            |       |  0.51

Nlocal:    84 ave 87 max 78 min
Histogram: 1 0 0 0 0 3 2 4 1 1
Nghost:    2598.83 ave 2626 max 2573 min
Histogram: 2 1 1 0 3 0 2 1 1 1
Neighs:    18628.4 ave 19351 max 17200 min
Histogram: 1 0 0 0 1 2 1 4 2 1

Total # of neighbors = 223541
Ave neighs/atom = 221.767
Neighbor list builds = 0
Dangerous builds = 0
  triclinic box = (0 0 0) to (23.3007 23.3007 23.3007) with tilt (-0.077661 0 0)
WARNING: Resetting reneighboring criteria during minimization (../min.cpp:168)
Ewald initialization ...
  G vector (1/distance) = 0.365055
  estimated absolute RMS force accuracy = 1.94166e-05
  estimated relative force accuracy = 1.34841e-06
  KSpace vectors: actual max1d max3d = 2081 10 4630
                  kxmax kymax kzmax  = 10 10 10
Memory usage per processor = 4.56148 Mbytes
Step Temp E_pair E_mol TotEng Press 
     313           10    -18274.38            0   -18273.078    -8480.267 
     319           10     -18274.4            0   -18273.098   -8450.6461 
Loop time of 0.156859 on 12 procs for 6 steps with 1008 atoms

99.9% CPU use with 12 MPI tasks x no OpenMP threads

Minimization stats:
  Stopping criterion = linesearch alpha is zero
  Energy initial, next-to-last, final = 
        -18274.3795276     -18274.3997308     -18274.3997308
  Force two-norm initial, final = 0.802366 0.211856
  Force max component initial, final = 0.0852247 0.0191041
  Final line search alpha, max atom move = 2.38419e-07 4.55478e-09
  Iterations, force evaluations = 6 55

MPI task timing breakdown:
Section |  min time  |  avg time  |  max time  |%varavg| %total
---------------------------------------------------------------
Pair    | 0.054412   | 0.059746   | 0.062645   |   0.8 | 38.09
Kspace  | 0.087759   | 0.089236   | 0.090535   |   0.3 | 56.89
Neigh   | 0          | 0          | 0          |   0.0 |  0.00
Comm    | 0.005193   | 0.0071615  | 0.011331   |   1.8 |  4.57
Output  | 0          | 0          | 0          |   0.0 |  0.00
Modify  | 0          | 0          | 0          |   0.0 |  0.00
Other   |            | 0.0007151  |            |       |  0.46

Nlocal:    84 ave 87 max 78 min
Histogram: 1 0 0 0 0 3 2 4 1 1
Nghost:    2598.83 ave 2626 max 2573 min
Histogram: 2 1 1 0 3 0 2 1 1 1
Neighs:    18627.3 ave 19349 max 17207 min
Histogram: 1 0 0 0 1 2 1 4 2 1

Total # of neighbors = 223528
Ave neighs/atom = 221.754
Neighbor list builds = 0
Dangerous builds = 0
  triclinic box = (0 0 0) to (23.3007 23.3007 23.3007) with tilt (-0.038842 0 0)
WARNING: Resetting reneighboring criteria during minimization (../min.cpp:168)
Ewald initialization ...
  G vector (1/distance) = 0.365055
  estimated absolute RMS force accuracy = 1.94166e-05
  estimated relative force accuracy = 1.34841e-06
  KSpace vectors: actual max1d max3d = 2082 10 4630
                  kxmax kymax kzmax  = 10 10 10
Memory usage per processor = 4.56148 Mbytes
Step Temp E_pair E_mol TotEng Press 
     319           10   -18274.455            0   -18273.154   -8489.7214 
     322           10   -18274.459            0   -18273.158   -8473.9966 
Loop time of 0.139798 on 12 procs for 3 steps with 1008 atoms

100.1% CPU use with 12 MPI tasks x no OpenMP threads

Minimization stats:
  Stopping criterion = linesearch alpha is zero
  Energy initial, next-to-last, final = 
        -18274.4552432     -18274.4594368     -18274.4594368
  Force two-norm initial, final = 0.401352 0.189452
  Force max component initial, final = 0.0425997 0.0133425
  Final line search alpha, max atom move = 2.38419e-07 3.18109e-09
  Iterations, force evaluations = 3 49

MPI task timing breakdown:
Section |  min time  |  avg time  |  max time  |%varavg| %total
---------------------------------------------------------------
Pair    | 0.048256   | 0.053303   | 0.055897   |   0.8 | 38.13
Kspace  | 0.07823    | 0.079614   | 0.080932   |   0.3 | 56.95
Neigh   | 0          | 0          | 0          |   0.0 |  0.00
Comm    | 0.0045235  | 0.0062673  | 0.01002    |   1.7 |  4.48
Output  | 0          | 0          | 0          |   0.0 |  0.00
Modify  | 0          | 0          | 0          |   0.0 |  0.00
Other   |            | 0.0006135  |            |       |  0.44

Nlocal:    84 ave 87 max 78 min
Histogram: 1 0 0 0 0 3 2 4 1 1
Nghost:    2598.83 ave 2626 max 2573 min
Histogram: 2 1 1 0 3 0 2 1 1 1
Neighs:    18629.8 ave 19347 max 17211 min
Histogram: 1 0 0 0 1 2 1 4 1 2

Total # of neighbors = 223557
Ave neighs/atom = 221.783
Neighbor list builds = 0
Dangerous builds = 0
  triclinic box = (0 0 0) to (23.3007 23.3007 23.3007) with tilt (0 0 0)
WARNING: Resetting reneighboring criteria during minimization (../min.cpp:168)
Ewald initialization ...
  G vector (1/distance) = 0.365055
  estimated absolute RMS force accuracy = 1.94166e-05
  estimated relative force accuracy = 1.34841e-06
  KSpace vectors: actual max1d max3d = 2084 10 4630
                  kxmax kymax kzmax  = 10 10 10
Memory usage per processor = 4.56148 Mbytes
Step Temp E_pair E_mol TotEng Press 
     322           10   -18274.498            0   -18273.197   -8493.3274 
     324           10   -18274.498            0   -18273.197   -8491.0884 
Loop time of 0.0673336 on 12 procs for 2 steps with 1008 atoms

99.4% CPU use with 12 MPI tasks x no OpenMP threads

Minimization stats:
  Stopping criterion = linesearch alpha is zero
  Energy initial, next-to-last, final = 
        -18274.4983679     -18274.4983716     -18274.4983716
  Force two-norm initial, final = 0.00470327 0.00314871
  Force max component initial, final = 0.000320297 0.000236233
  Final line search alpha, max atom move = 0.000976562 2.30696e-07
  Iterations, force evaluations = 2 23

MPI task timing breakdown:
Section |  min time  |  avg time  |  max time  |%varavg| %total
---------------------------------------------------------------
Pair    | 0.023151   | 0.025584   | 0.026911   |   0.6 | 38.00
Kspace  | 0.037519   | 0.038378   | 0.039054   |   0.2 | 57.00
Neigh   | 0          | 0          | 0          |   0.0 |  0.00
Comm    | 0.0022502  | 0.0030587  | 0.0048232  |   1.2 |  4.54
Output  | 0          | 0          | 0          |   0.0 |  0.00
Modify  | 0          | 0          | 0          |   0.0 |  0.00
Other   |            | 0.0003124  |            |       |  0.46

Nlocal:    84 ave 87 max 78 min
Histogram: 1 0 0 0 0 3 2 4 1 1
Nghost:    2598.83 ave 2626 max 2573 min
Histogram: 2 1 1 0 3 0 2 1 1 1
Neighs:    18628.5 ave 19345 max 17214 min
Histogram: 1 0 0 0 1 2 1 4 1 2

Total # of neighbors = 223542
Ave neighs/atom = 221.768
Neighbor list builds = 0
Dangerous builds = 0
  triclinic box = (0 0 0) to (23.3007 23.3007 23.3007) with tilt (0.038842 0 0)
WARNING: Resetting reneighboring criteria during minimization (../min.cpp:168)
Ewald initialization ...
  G vector (1/distance) = 0.365055
  estimated absolute RMS force accuracy = 1.94166e-05
  estimated relative force accuracy = 1.34841e-06
  KSpace vectors: actual max1d max3d = 2082 10 4630
                  kxmax kymax kzmax  = 10 10 10
Memory usage per processor = 4.56148 Mbytes
Step Temp E_pair E_mol TotEng Press 
     324           10   -18274.511            0    -18273.21   -8491.7359 
     334           10   -18274.519            0   -18273.217   -8504.5612 
Loop time of 0.162213 on 12 procs for 10 steps with 1008 atoms

99.8% CPU use with 12 MPI tasks x no OpenMP threads

Minimization stats:
  Stopping criterion = linesearch alpha is zero
  Energy initial, next-to-last, final = 
        -18274.5112321      -18274.519094      -18274.519094
  Force two-norm initial, final = 0.401101 0.0574779
  Force max component initial, final = 0.042382 0.00424953
  Final line search alpha, max atom move = 1.90735e-06 8.10533e-09
  Iterations, force evaluations = 10 57

MPI task timing breakdown:
Section |  min time  |  avg time  |  max time  |%varavg| %total
---------------------------------------------------------------
Pair    | 0.056051   | 0.061841   | 0.064766   |   0.9 | 38.12
Kspace  | 0.090422   | 0.092314   | 0.093781   |   0.3 | 56.91
Neigh   | 0          | 0          | 0          |   0.0 |  0.00
Comm    | 0.0052462  | 0.0072812  | 0.011641   |   1.8 |  4.49
Output  | 0          | 0          | 0          |   0.0 |  0.00
Modify  | 0          | 0          | 0          |   0.0 |  0.00
Other   |            | 0.0007775  |            |       |  0.48

Nlocal:    84 ave 87 max 78 min
Histogram: 1 0 0 0 0 3 2 4 1 1
Nghost:    2598.83 ave 2626 max 2573 min
Histogram: 2 1 1 0 3 0 2 1 1 1
Neighs:    18629.6 ave 19357 max 17211 min
Histogram: 1 0 0 0 1 2 1 4 1 2

Total # of neighbors = 223555
Ave neighs/atom = 221.781
Neighbor list builds = 0
Dangerous builds = 0
  triclinic box = (0 0 0) to (23.3007 23.3007 23.3007) with tilt (0.077661 0 0)
WARNING: Resetting reneighboring criteria during minimization (../min.cpp:168)
Ewald initialization ...
  G vector (1/distance) = 0.365055
  estimated absolute RMS force accuracy = 1.94166e-05
  estimated relative force accuracy = 1.34841e-06
  KSpace vectors: actual max1d max3d = 2081 10 4630
                  kxmax kymax kzmax  = 10 10 10
Memory usage per processor = 4.56148 Mbytes
Step Temp E_pair E_mol TotEng Press 
     334           10   -18274.501            0   -18273.199   -8486.7257 
     350           10   -18274.526            0   -18273.225   -8537.5266 
     351           10   -18274.526            0   -18273.225   -8537.5266 
Loop time of 0.196104 on 12 procs for 17 steps with 1008 atoms

100.1% CPU use with 12 MPI tasks x no OpenMP threads

Minimization stats:
  Stopping criterion = linesearch alpha is zero
  Energy initial, next-to-last, final = 
        -18274.5011459     -18274.5264764     -18274.5264764
  Force two-norm initial, final = 0.802017 0.0568967
  Force max component initial, final = 0.084683 0.00754897
  Final line search alpha, max atom move = 3.8147e-06 2.8797e-08
  Iterations, force evaluations = 17 69

MPI task timing breakdown:
Section |  min time  |  avg time  |  max time  |%varavg| %total
---------------------------------------------------------------
Pair    | 0.067465   | 0.074492   | 0.078534   |   1.0 | 37.99
Kspace  | 0.10987    | 0.1118     | 0.11371    |   0.3 | 57.01
Neigh   | 0          | 0          | 0          |   0.0 |  0.00
Comm    | 0.0063179  | 0.0088109  | 0.013957   |   2.0 |  4.49
Output  | 1.9073e-05 | 1.9312e-05 | 2.1935e-05 |   0.0 |  0.01
Modify  | 0          | 0          | 0          |   0.0 |  0.00
Other   |            | 0.0009802  |            |       |  0.50

Nlocal:    84 ave 87 max 78 min
Histogram: 1 0 0 0 0 3 2 4 1 1
Nghost:    2598.83 ave 2626 max 2573 min
Histogram: 2 1 1 0 3 0 2 1 1 1
Neighs:    18630.5 ave 19353 max 17213 min
Histogram: 1 0 0 0 1 2 1 4 1 2

Total # of neighbors = 223566
Ave neighs/atom = 221.792
Neighbor list builds = 0
Dangerous builds = 0
  triclinic box = (0 0 0) to (23.3007 23.3007 23.3007) with tilt (0.116503 0 0)
WARNING: Resetting reneighboring criteria during minimization (../min.cpp:168)
Ewald initialization ...
  G vector (1/distance) = 0.365055
  estimated absolute RMS force accuracy = 1.94166e-05
  estimated relative force accuracy = 1.34841e-06
  KSpace vectors: actual max1d max3d = 2079 10 4630
                  kxmax kymax kzmax  = 10 10 10
Memory usage per processor = 4.56148 Mbytes
Step Temp E_pair E_mol TotEng Press 
     351           10   -18274.457            0   -18273.156   -8475.7491 
     364           10   -18274.514            0   -18273.212   -8550.0738 
Loop time of 0.190078 on 12 procs for 13 steps with 1008 atoms

99.9% CPU use with 12 MPI tasks x no OpenMP threads

Minimization stats:
  Stopping criterion = linesearch alpha is zero
  Energy initial, next-to-last, final = 
        -18274.4574762     -18274.5135482     -18274.5135482
  Force two-norm initial, final = 1.20325 0.128686
  Force max component initial, final = 0.12689 0.0110128
  Final line search alpha, max atom move = 4.76837e-07 5.25133e-09
  Iterations, force evaluations = 13 67

MPI task timing breakdown:
Section |  min time  |  avg time  |  max time  |%varavg| %total
---------------------------------------------------------------
Pair    | 0.065354   | 0.072496   | 0.076042   |   1.0 | 38.14
Kspace  | 0.10563    | 0.10814    | 0.1102     |   0.4 | 56.89
Neigh   | 0          | 0          | 0          |   0.0 |  0.00
Comm    | 0.0061305  | 0.0085294  | 0.013622   |   2.0 |  4.49
Output  | 0          | 0          | 0          |   0.0 |  0.00
Modify  | 0          | 0          | 0          |   0.0 |  0.00
Other   |            | 0.0009095  |            |       |  0.48

Nlocal:    84 ave 87 max 78 min
Histogram: 1 0 0 0 0 3 2 4 1 1
Nghost:    2598.83 ave 2626 max 2573 min
Histogram: 2 1 1 0 3 0 2 1 1 1
Neighs:    18631.3 ave 19355 max 17215 min
Histogram: 1 0 0 0 1 2 1 4 1 2

Total # of neighbors = 223576
Ave neighs/atom = 221.802
Neighbor list builds = 0
Dangerous builds = 0
  triclinic box = (0 0 0) to (23.3007 23.3007 23.3007) with tilt (0 -0.116503 0)
WARNING: Resetting reneighboring criteria during minimization (../min.cpp:168)
Ewald initialization ...
  G vector (1/distance) = 0.365055
  estimated absolute RMS force accuracy = 1.94166e-05
  estimated relative force accuracy = 1.34841e-06
  KSpace vectors: actual max1d max3d = 2079 10 4630
                  kxmax kymax kzmax  = 10 10 10
Memory usage per processor = 4.56148 Mbytes
Step Temp E_pair E_mol TotEng Press 
     364           10   -18274.323            0   -18273.021   -8384.1184 
     374           10   -18274.377            0   -18273.075   -8424.1975 
Loop time of 0.179881 on 12 procs for 10 steps with 1008 atoms

99.8% CPU use with 12 MPI tasks x no OpenMP threads

Minimization stats:
  Stopping criterion = linesearch alpha is zero
  Energy initial, next-to-last, final = 
        -18274.3230066     -18274.3768722     -18274.3768722
  Force two-norm initial, final = 1.22651 0.203338
  Force max component initial, final = 0.109134 0.0164438
  Final line search alpha, max atom move = 2.38419e-07 3.92051e-09
  Iterations, force evaluations = 10 63

MPI task timing breakdown:
Section |  min time  |  avg time  |  max time  |%varavg| %total
---------------------------------------------------------------
Pair    | 0.061973   | 0.068718   | 0.072199   |   0.9 | 38.20
Kspace  | 0.10045    | 0.10228    | 0.10428    |   0.3 | 56.86
Neigh   | 0          | 0          | 0          |   0.0 |  0.00
Comm    | 0.0057666  | 0.0080404  | 0.012808   |   1.9 |  4.47
Output  | 0          | 0          | 0          |   0.0 |  0.00
Modify  | 0          | 0          | 0          |   0.0 |  0.00
Other   |            | 0.0008379  |            |       |  0.47

Nlocal:    84 ave 87 max 78 min
Histogram: 1 0 0 0 0 3 2 4 1 1
Nghost:    2598.83 ave 2626 max 2573 min
Histogram: 2 1 1 0 3 0 2 1 1 1
Neighs:    18629.1 ave 19353 max 17214 min
Histogram: 1 0 0 0 1 2 2 3 2 1

Total # of neighbors = 223549
Ave neighs/atom = 221.775
Neighbor list builds = 0
Dangerous builds = 0
  triclinic box = (0 0 0) to (23.3007 23.3007 23.3007) with tilt (0 -0.077661 0)
WARNING: Resetting reneighboring criteria during minimization (../min.cpp:168)
Ewald initialization ...
  G vector (1/distance) = 0.365055
  estimated absolute RMS force accuracy = 1.94166e-05
  estimated relative force accuracy = 1.34841e-06
  KSpace vectors: actual max1d max3d = 2081 10 4630
                  kxmax kymax kzmax  = 10 10 10
Memory usage per processor = 4.56148 Mbytes
Step Temp E_pair E_mol TotEng Press 
     374           10   -18274.412            0    -18273.11    -8426.115 
     383           10   -18274.433            0   -18273.131   -8441.9782 
Loop time of 0.26863 on 12 procs for 9 steps with 1008 atoms

99.9% CPU use with 12 MPI tasks x no OpenMP threads

Minimization stats:
  Stopping criterion = linesearch alpha is zero
  Energy initial, next-to-last, final = 
        -18274.4119071      -18274.433097      -18274.433097
  Force two-norm initial, final = 0.81763 0.142899
  Force max component initial, final = 0.0726204 0.0106557
  Final line search alpha, max atom move = 4.76837e-07 5.08105e-09
  Iterations, force evaluations = 9 95

MPI task timing breakdown:
Section |  min time  |  avg time  |  max time  |%varavg| %total
---------------------------------------------------------------
Pair    | 0.092763   | 0.10261    | 0.10763    |   1.1 | 38.20
Kspace  | 0.1501     | 0.15277    | 0.15551    |   0.4 | 56.87
Neigh   | 0          | 0          | 0          |   0.0 |  0.00
Comm    | 0.0086272  | 0.012063   | 0.019197   |   2.4 |  4.49
Output  | 0          | 0          | 0          |   0.0 |  0.00
Modify  | 0          | 0          | 0          |   0.0 |  0.00
Other   |            | 0.001184   |            |       |  0.44

Nlocal:    84 ave 87 max 78 min
Histogram: 1 0 0 0 0 3 2 4 1 1
Nghost:    2598.83 ave 2626 max 2573 min
Histogram: 2 1 1 0 3 0 2 1 1 1
Neighs:    18628.4 ave 19345 max 17212 min
Histogram: 1 0 0 0 1 2 1 4 2 1

Total # of neighbors = 223541
Ave neighs/atom = 221.767
Neighbor list builds = 0
Dangerous builds = 0
  triclinic box = (0 0 0) to (23.3007 23.3007 23.3007) with tilt (0 -0.038842 0)
WARNING: Resetting reneighboring criteria during minimization (../min.cpp:168)
Ewald initialization ...
  G vector (1/distance) = 0.365055
  estimated absolute RMS force accuracy = 1.94166e-05
  estimated relative force accuracy = 1.34841e-06
  KSpace vectors: actual max1d max3d = 2082 10 4630
                  kxmax kymax kzmax  = 10 10 10
Memory usage per processor = 4.56148 Mbytes
Step Temp E_pair E_mol TotEng Press 
     383           10   -18274.467            0   -18273.165   -8461.5332 
     387           10   -18274.471            0    -18273.17   -8476.1023 
Loop time of 0.14014 on 12 procs for 4 steps with 1008 atoms

99.8% CPU use with 12 MPI tasks x no OpenMP threads

Minimization stats:
  Stopping criterion = linesearch alpha is zero
  Energy initial, next-to-last, final = 
        -18274.4668356     -18274.4714787     -18274.4714787
  Force two-norm initial, final = 0.408992 0.14821
  Force max component initial, final = 0.0362277 0.0130073
  Final line search alpha, max atom move = 4.76837e-07 6.20238e-09
  Iterations, force evaluations = 4 49

MPI task timing breakdown:
Section |  min time  |  avg time  |  max time  |%varavg| %total
---------------------------------------------------------------
Pair    | 0.048154   | 0.053343   | 0.056048   |   0.8 | 38.06
Kspace  | 0.078415   | 0.079821   | 0.081299   |   0.3 | 56.96
Neigh   | 0          | 0          | 0          |   0.0 |  0.00
Comm    | 0.0045733  | 0.006343   | 0.01009    |   1.7 |  4.53
Output  | 0          | 0          | 0          |   0.0 |  0.00
Modify  | 0          | 0          | 0          |   0.0 |  0.00
Other   |            | 0.000633   |            |       |  0.45

Nlocal:    84 ave 87 max 78 min
Histogram: 1 0 0 0 0 3 2 4 1 1
Nghost:    2598.83 ave 2626 max 2573 min
Histogram: 2 1 1 0 3 0 2 1 1 1
Neighs:    18628.2 ave 19344 max 17214 min
Histogram: 1 0 0 0 1 2 1 4 1 2

Total # of neighbors = 223539
Ave neighs/atom = 221.765
Neighbor list builds = 0
Dangerous builds = 0
  triclinic box = (0 0 0) to (23.3007 23.3007 23.3007) with tilt (0 0 0)
WARNING: Resetting reneighboring criteria during minimization (../min.cpp:168)
Ewald initialization ...
  G vector (1/distance) = 0.365055
  estimated absolute RMS force accuracy = 1.94166e-05
  estimated relative force accuracy = 1.34841e-06
  KSpace vectors: actual max1d max3d = 2084 10 4630
                  kxmax kymax kzmax  = 10 10 10
Memory usage per processor = 4.56148 Mbytes
Step Temp E_pair E_mol TotEng Press 
     387           10   -18274.498            0   -18273.197   -8493.3274 
     389           10   -18274.498            0   -18273.197   -8491.0884 
Loop time of 0.0671299 on 12 procs for 2 steps with 1008 atoms

100.0% CPU use with 12 MPI tasks x no OpenMP threads

Minimization stats:
  Stopping criterion = linesearch alpha is zero
  Energy initial, next-to-last, final = 
        -18274.4983679     -18274.4983716     -18274.4983716
  Force two-norm initial, final = 0.00470327 0.00314871
  Force max component initial, final = 0.000320297 0.000236233
  Final line search alpha, max atom move = 0.000976562 2.30696e-07
  Iterations, force evaluations = 2 23

MPI task timing breakdown:
Section |  min time  |  avg time  |  max time  |%varavg| %total
---------------------------------------------------------------
Pair    | 0.023324   | 0.025609   | 0.026793   |   0.5 | 38.15
Kspace  | 0.037533   | 0.038198   | 0.038983   |   0.2 | 56.90
Neigh   | 0          | 0          | 0          |   0.0 |  0.00
Comm    | 0.0021634  | 0.0030159  | 0.0048168  |   1.2 |  4.49
Output  | 0          | 0          | 0          |   0.0 |  0.00
Modify  | 0          | 0          | 0          |   0.0 |  0.00
Other   |            | 0.000307   |            |       |  0.46

Nlocal:    84 ave 87 max 78 min
Histogram: 1 0 0 0 0 3 2 4 1 1
Nghost:    2598.83 ave 2626 max 2573 min
Histogram: 2 1 1 0 3 0 2 1 1 1
Neighs:    18628.5 ave 19345 max 17214 min
Histogram: 1 0 0 0 1 2 1 4 1 2

Total # of neighbors = 223542
Ave neighs/atom = 221.768
Neighbor list builds = 0
Dangerous builds = 0
  triclinic box = (0 0 0) to (23.3007 23.3007 23.3007) with tilt (0 0.038842 0)
WARNING: Resetting reneighboring criteria during minimization (../min.cpp:168)
Ewald initialization ...
  G vector (1/distance) = 0.365055
  estimated absolute RMS force accuracy = 1.94166e-05
  estimated relative force accuracy = 1.34841e-06
  KSpace vectors: actual max1d max3d = 2082 10 4630
                  kxmax kymax kzmax  = 10 10 10
Memory usage per processor = 4.56148 Mbytes
Step Temp E_pair E_mol TotEng Press 
     389           10   -18274.501            0     -18273.2   -8520.0067 
     396           10   -18274.507            0   -18273.206   -8507.9254 
Loop time of 0.246255 on 12 procs for 7 steps with 1008 atoms

99.8% CPU use with 12 MPI tasks x no OpenMP threads

Minimization stats:
  Stopping criterion = linesearch alpha is zero
  Energy initial, next-to-last, final = 
        -18274.5013877     -18274.5071728     -18274.5071728
  Force two-norm initial, final = 0.408995 0.0893922
  Force max component initial, final = 0.0362898 0.00655296
  Final line search alpha, max atom move = 9.53674e-07 6.24939e-09
  Iterations, force evaluations = 7 87

MPI task timing breakdown:
Section |  min time  |  avg time  |  max time  |%varavg| %total
---------------------------------------------------------------
Pair    | 0.08509    | 0.093963   | 0.09851    |   1.1 | 38.16
Kspace  | 0.13686    | 0.14009    | 0.14243    |   0.4 | 56.89
Neigh   | 0          | 0          | 0          |   0.0 |  0.00
Comm    | 0.0079832  | 0.011124   | 0.017692   |   2.3 |  4.52
Output  | 0          | 0          | 0          |   0.0 |  0.00
Modify  | 0          | 0          | 0          |   0.0 |  0.00
Other   |            | 0.001077   |            |       |  0.44

Nlocal:    84 ave 87 max 78 min
Histogram: 1 0 0 0 0 3 2 4 1 1
Nghost:    2598.83 ave 2626 max 2573 min
Histogram: 2 1 1 0 3 0 2 1 1 1
Neighs:    18629.8 ave 19352 max 17211 min
Histogram: 1 0 0 0 1 2 1 4 1 2

Total # of neighbors = 223557
Ave neighs/atom = 221.783
Neighbor list builds = 0
Dangerous builds = 0
  triclinic box = (0 0 0) to (23.3007 23.3007 23.3007) with tilt (0 0.077661 0)
WARNING: Resetting reneighboring criteria during minimization (../min.cpp:168)
Ewald initialization ...
  G vector (1/distance) = 0.365055
  estimated absolute RMS force accuracy = 1.94166e-05
  estimated relative force accuracy = 1.34841e-06
  KSpace vectors: actual max1d max3d = 2081 10 4630
                  kxmax kymax kzmax  = 10 10 10
Memory usage per processor = 4.56148 Mbytes
Step Temp E_pair E_mol TotEng Press 
     396           10   -18274.477            0   -18273.176   -8542.0331 
     400           10   -18274.496            0   -18273.194   -8517.6451 
     403           10   -18274.497            0   -18273.196    -8527.816 
Loop time of 0.163492 on 12 procs for 7 steps with 1008 atoms

99.9% CPU use with 12 MPI tasks x no OpenMP threads

Minimization stats:
  Stopping criterion = linesearch alpha is zero
  Energy initial, next-to-last, final = 
        -18274.4772276     -18274.4974361     -18274.4974361
  Force two-norm initial, final = 0.81768 0.178297
  Force max component initial, final = 0.0723849 0.0124629
  Final line search alpha, max atom move = 2.38419e-07 2.97139e-09
  Iterations, force evaluations = 7 57

MPI task timing breakdown:
Section |  min time  |  avg time  |  max time  |%varavg| %total
---------------------------------------------------------------
Pair    | 0.055912   | 0.061784   | 0.064819   |   0.9 | 37.79
Kspace  | 0.091344   | 0.093028   | 0.094678   |   0.3 | 56.90
Neigh   | 0          | 0          | 0          |   0.0 |  0.00
Comm    | 0.0058587  | 0.0079035  | 0.012142   |   1.7 |  4.83
Output  | 1.812e-05  | 1.9411e-05 | 2.2173e-05 |   0.0 |  0.01
Modify  | 0          | 0          | 0          |   0.0 |  0.00
Other   |            | 0.0007564  |            |       |  0.46

Nlocal:    84 ave 87 max 78 min
Histogram: 1 0 0 0 0 3 2 4 1 1
Nghost:    2598.83 ave 2626 max 2573 min
Histogram: 2 1 1 0 3 0 2 1 1 1
Neighs:    18630.5 ave 19357 max 17210 min
Histogram: 1 0 0 0 1 2 1 4 2 1

Total # of neighbors = 223566
Ave neighs/atom = 221.792
Neighbor list builds = 0
Dangerous builds = 0
  triclinic box = (0 0 0) to (23.3007 23.3007 23.3007) with tilt (0 0.116503 0)
WARNING: Resetting reneighboring criteria during minimization (../min.cpp:168)
Ewald initialization ...
  G vector (1/distance) = 0.365055
  estimated absolute RMS force accuracy = 1.94166e-05
  estimated relative force accuracy = 1.34841e-06
  KSpace vectors: actual max1d max3d = 2079 10 4630
                  kxmax kymax kzmax  = 10 10 10
Memory usage per processor = 4.56148 Mbytes
Step Temp E_pair E_mol TotEng Press 
     403           10    -18274.42            0   -18273.118   -8557.9321 
     424           10    -18274.48            0   -18273.179   -8501.6702 
Loop time of 0.321159 on 12 procs for 21 steps with 1008 atoms

99.8% CPU use with 12 MPI tasks x no OpenMP threads

Minimization stats:
  Stopping criterion = linesearch alpha is zero
  Energy initial, next-to-last, final = 
        -18274.4199911     -18274.4801847     -18274.4801847
  Force two-norm initial, final = 1.22669 0.081966
  Force max component initial, final = 0.108396 0.00653552
  Final line search alpha, max atom move = 9.53674e-07 6.23276e-09
  Iterations, force evaluations = 21 113

MPI task timing breakdown:
Section |  min time  |  avg time  |  max time  |%varavg| %total
---------------------------------------------------------------
Pair    | 0.11094    | 0.12242    | 0.12917    |   1.2 | 38.12
Kspace  | 0.17871    | 0.18273    | 0.18579    |   0.5 | 56.90
Neigh   | 0          | 0          | 0          |   0.0 |  0.00
Comm    | 0.010476   | 0.014487   | 0.022973   |   2.6 |  4.51
Output  | 0          | 0          | 0          |   0.0 |  0.00
Modify  | 0          | 0          | 0          |   0.0 |  0.00
Other   |            | 0.001521   |            |       |  0.47

Nlocal:    84 ave 87 max 78 min
Histogram: 1 0 0 0 0 3 2 4 1 1
Nghost:    2598.83 ave 2626 max 2573 min
Histogram: 2 1 1 0 3 0 2 1 1 1
Neighs:    18629.6 ave 19353 max 17209 min
Histogram: 1 0 0 0 1 2 1 4 2 1

Total # of neighbors = 223555
Ave neighs/atom = 221.781
Neighbor list builds = 0
Dangerous builds = 0
  triclinic box = (0 0 0) to (23.3007 23.3007 23.3007) with tilt (0 0 -0.116503)
WARNING: Resetting reneighboring criteria during minimization (../min.cpp:168)
Ewald initialization ...
  G vector (1/distance) = 0.365055
  estimated absolute RMS force accuracy = 1.94166e-05
  estimated relative force accuracy = 1.34841e-06
  KSpace vectors: actual max1d max3d = 2079 10 4630
                  kxmax kymax kzmax  = 10 10 10
Memory usage per processor = 4.56148 Mbytes
Step Temp E_pair E_mol TotEng Press 
     424           10   -18274.483            0   -18273.181   -8441.4562 
     440           10   -18274.542            0    -18273.24   -8336.4149 
Loop time of 0.207367 on 12 procs for 16 steps with 1008 atoms

99.7% CPU use with 12 MPI tasks x no OpenMP threads

Minimization stats:
  Stopping criterion = linesearch alpha is zero
  Energy initial, next-to-last, final = 
          -18274.48309     -18274.5421385     -18274.5421385
  Force two-norm initial, final = 1.26113 0.11099
  Force max component initial, final = 0.127588 0.0101449
  Final line search alpha, max atom move = 9.53674e-07 9.67491e-09
  Iterations, force evaluations = 16 73

MPI task timing breakdown:
Section |  min time  |  avg time  |  max time  |%varavg| %total
---------------------------------------------------------------
Pair    | 0.071943   | 0.079089   | 0.0832     |   1.0 | 38.14
Kspace  | 0.11524    | 0.11798    | 0.11972    |   0.4 | 56.90
Neigh   | 0          | 0          | 0          |   0.0 |  0.00
Comm    | 0.0066807  | 0.0092952  | 0.014792   |   2.1 |  4.48
Output  | 0          | 0          | 0          |   0.0 |  0.00
Modify  | 0          | 0          | 0          |   0.0 |  0.00
Other   |            | 0.0009984  |            |       |  0.48

Nlocal:    84 ave 87 max 78 min
Histogram: 1 0 0 0 0 3 2 4 1 1
Nghost:    2598.83 ave 2626 max 2573 min
Histogram: 2 1 1 0 3 0 2 1 1 1
Neighs:    18631 ave 19346 max 17219 min
Histogram: 1 0 0 0 1 2 1 4 1 2

Total # of neighbors = 223572
Ave neighs/atom = 221.798
Neighbor list builds = 0
Dangerous builds = 0
  triclinic box = (0 0 0) to (23.3007 23.3007 23.3007) with tilt (0 0 -0.077661)
WARNING: Resetting reneighboring criteria during minimization (../min.cpp:168)
Ewald initialization ...
  G vector (1/distance) = 0.365055
  estimated absolute RMS force accuracy = 1.94166e-05
  estimated relative force accuracy = 1.34841e-06
  KSpace vectors: actual max1d max3d = 2081 10 4630
                  kxmax kymax kzmax  = 10 10 10
Memory usage per processor = 4.56148 Mbytes
Step Temp E_pair E_mol TotEng Press 
     440           10   -18274.516            0   -18273.214   -8463.5137 
     445           10   -18274.535            0   -18273.234   -8410.5279 
Loop time of 0.156447 on 12 procs for 5 steps with 1008 atoms

99.8% CPU use with 12 MPI tasks x no OpenMP threads

Minimization stats:
  Stopping criterion = linesearch alpha is zero
  Energy initial, next-to-last, final = 
         -18274.515814     -18274.5354673     -18274.5354673
  Force two-norm initial, final = 0.840803 0.25759
  Force max component initial, final = 0.085069 0.0296341
  Final line search alpha, max atom move = 1.19209e-07 3.53266e-09
  Iterations, force evaluations = 5 55

MPI task timing breakdown:
Section |  min time  |  avg time  |  max time  |%varavg| %total
---------------------------------------------------------------
Pair    | 0.054029   | 0.059796   | 0.062498   |   0.9 | 38.22
Kspace  | 0.086875   | 0.088919   | 0.090524   |   0.3 | 56.84
Neigh   | 0          | 0          | 0          |   0.0 |  0.00
Comm    | 0.0050504  | 0.0070322  | 0.011216   |   1.8 |  4.49
Output  | 0          | 0          | 0          |   0.0 |  0.00
Modify  | 0          | 0          | 0          |   0.0 |  0.00
Other   |            | 0.0007004  |            |       |  0.45

Nlocal:    84 ave 87 max 78 min
Histogram: 1 0 0 0 0 3 2 4 1 1
Nghost:    2598.83 ave 2626 max 2573 min
Histogram: 2 1 1 0 3 0 2 1 1 1
Neighs:    18631 ave 19348 max 17223 min
Histogram: 1 0 0 0 1 2 1 4 1 2

Total # of neighbors = 223572
Ave neighs/atom = 221.798
Neighbor list builds = 0
Dangerous builds = 0
  triclinic box = (0 0 0) to (23.3007 23.3007 23.3007) with tilt (0 0 -0.038842)
WARNING: Resetting reneighboring criteria during minimization (../min.cpp:168)
Ewald initialization ...
  G vector (1/distance) = 0.365055
  estimated absolute RMS force accuracy = 1.94166e-05
  estimated relative force accuracy = 1.34841e-06
  KSpace vectors: actual max1d max3d = 2082 10 4630
                  kxmax kymax kzmax  = 10 10 10
Memory usage per processor = 4.56148 Mbytes
Step Temp E_pair E_mol TotEng Press 
[...]
        -18274.5952191     -18274.5995126     -18274.5995126
  Force two-norm initial, final = 0.409093 0.122783
  Force max component initial, final = 0.0364114 0.0114411
  Final line search alpha, max atom move = 4.76837e-07 5.45556e-09
  Iterations, force evaluations = 5 51

MPI task timing breakdown:
Section |  min time  |  avg time  |  max time  |%varavg| %total
---------------------------------------------------------------
Pair    | 0.050424   | 0.05562    | 0.058347   |   0.8 | 38.16
Kspace  | 0.081442   | 0.082864   | 0.084223   |   0.3 | 56.84
Neigh   | 0          | 0          | 0          |   0.0 |  0.00
Comm    | 0.0048199  | 0.0066235  | 0.010485   |   1.7 |  4.54
Output  | 0          | 0          | 0          |   0.0 |  0.00
Modify  | 0          | 0          | 0          |   0.0 |  0.00
Other   |            | 0.0006641  |            |       |  0.46

Nlocal:    84 ave 87 max 78 min
Histogram: 1 0 0 0 0 3 2 4 1 1
Nghost:    2602.75 ave 2629 max 2582 min
Histogram: 3 1 0 1 1 3 0 1 1 1
Neighs:    18630.5 ave 19360 max 17218 min
Histogram: 1 0 0 0 1 2 2 2 3 1

Total # of neighbors = 223566
Ave neighs/atom = 221.792
Neighbor list builds = 0
Dangerous builds = 0
  triclinic box = (0 0 0) to (23.3007 23.3007 23.3007) with tilt (0 0.077661 0)
WARNING: Resetting reneighboring criteria during minimization (../min.cpp:168)
Ewald initialization ...
  G vector (1/distance) = 0.365055
  estimated absolute RMS force accuracy = 1.94166e-05
  estimated relative force accuracy = 1.34841e-06
  KSpace vectors: actual max1d max3d = 2081 10 4630
                  kxmax kymax kzmax  = 10 10 10
Memory usage per processor = 4.56148 Mbytes
Step Temp E_pair E_mol TotEng Press 
     870           10   -18274.555            0   -18273.254   -8081.3641 
     881           10   -18274.579            0   -18273.277   -8078.2056 
Loop time of 0.190976 on 12 procs for 11 steps with 1008 atoms

99.9% CPU use with 12 MPI tasks x no OpenMP threads

Minimization stats:
  Stopping criterion = linesearch alpha is zero
  Energy initial, next-to-last, final = 
        -18274.5554766      -18274.579056      -18274.579056
  Force two-norm initial, final = 0.817877 0.121067
  Force max component initial, final = 0.0726434 0.0113357
  Final line search alpha, max atom move = 4.76837e-07 5.4053e-09
  Iterations, force evaluations = 11 67

MPI task timing breakdown:
Section |  min time  |  avg time  |  max time  |%varavg| %total
---------------------------------------------------------------
Pair    | 0.06585    | 0.072592   | 0.076271   |   0.9 | 38.01
Kspace  | 0.10663    | 0.10869    | 0.11044    |   0.4 | 56.91
Neigh   | 0          | 0          | 0          |   0.0 |  0.00
Comm    | 0.0064321  | 0.00879    | 0.013809   |   1.9 |  4.60
Output  | 0          | 0          | 0          |   0.0 |  0.00
Modify  | 0          | 0          | 0          |   0.0 |  0.00
Other   |            | 0.0009046  |            |       |  0.47

Nlocal:    84 ave 87 max 78 min
Histogram: 1 0 0 0 0 3 2 4 1 1
Nghost:    2602.75 ave 2629 max 2582 min
Histogram: 3 1 0 1 1 3 0 1 1 1
Neighs:    18633 ave 19361 max 17219 min
Histogram: 1 0 0 0 1 2 2 2 3 1

Total # of neighbors = 223596
Ave neighs/atom = 221.821
Neighbor list builds = 0
Dangerous builds = 0
  triclinic box = (0 0 0) to (23.3007 23.3007 23.3007) with tilt (0 0.116503 0)
WARNING: Resetting reneighboring criteria during minimization (../min.cpp:168)
Ewald initialization ...
  G vector (1/distance) = 0.365055
  estimated absolute RMS force accuracy = 1.94166e-05
  estimated relative force accuracy = 1.34841e-06
  KSpace vectors: actual max1d max3d = 2079 10 4630
                  kxmax kymax kzmax  = 10 10 10
Memory usage per processor = 4.56148 Mbytes
Step Temp E_pair E_mol TotEng Press 
     881           10   -18274.489            0   -18273.188   -8091.8771 
     896           10   -18274.542            0   -18273.241   -8104.1541 
Loop time of 0.202585 on 12 procs for 15 steps with 1008 atoms

100.1% CPU use with 12 MPI tasks x no OpenMP threads

Minimization stats:
  Stopping criterion = linesearch alpha is zero
  Energy initial, next-to-last, final = 
        -18274.4892015     -18274.5422332     -18274.5422332
  Force two-norm initial, final = 1.22699 0.13347
  Force max component initial, final = 0.108787 0.0127976
  Final line search alpha, max atom move = 4.76837e-07 6.10237e-09
  Iterations, force evaluations = 15 71

MPI task timing breakdown:
Section |  min time  |  avg time  |  max time  |%varavg| %total
---------------------------------------------------------------
Pair    | 0.070195   | 0.077434   | 0.081388   |   1.0 | 38.22
Kspace  | 0.11261    | 0.11511    | 0.11707    |   0.4 | 56.82
Neigh   | 0          | 0          | 0          |   0.0 |  0.00
Comm    | 0.0065408  | 0.0090595  | 0.01436    |   2.0 |  4.47
Output  | 0          | 0          | 0          |   0.0 |  0.00
Modify  | 0          | 0          | 0          |   0.0 |  0.00
Other   |            | 0.0009825  |            |       |  0.48

Nlocal:    84 ave 87 max 78 min
Histogram: 1 0 0 0 0 3 2 4 1 1
Nghost:    2602.75 ave 2629 max 2582 min
Histogram: 3 1 0 1 1 3 0 1 1 1
Neighs:    18632.1 ave 19370 max 17215 min
Histogram: 1 0 0 0 1 2 2 3 2 1

Total # of neighbors = 223585
Ave neighs/atom = 221.811
Neighbor list builds = 0
Dangerous builds = 0
  triclinic box = (0 0 0) to (23.3007 23.3007 23.3007) with tilt (0 0 -0.116503)
WARNING: Resetting reneighboring criteria during minimization (../min.cpp:168)
Ewald initialization ...
  G vector (1/distance) = 0.365055
  estimated absolute RMS force accuracy = 1.94166e-05
  estimated relative force accuracy = 1.34841e-06
  KSpace vectors: actual max1d max3d = 2079 10 4630
                  kxmax kymax kzmax  = 10 10 10
Memory usage per processor = 4.56148 Mbytes
Step Temp E_pair E_mol TotEng Press 
     896           10   -18274.602            0     -18273.3   -7993.8261 
     900           10   -18274.647            0   -18273.345   -7931.5785 
     911           10   -18274.662            0   -18273.361   -7909.5149 
Loop time of 0.308791 on 12 procs for 15 steps with 1008 atoms

99.8% CPU use with 12 MPI tasks x no OpenMP threads

Minimization stats:
  Stopping criterion = linesearch alpha is zero
  Energy initial, next-to-last, final = 
        -18274.6019424     -18274.6624667     -18274.6624667
  Force two-norm initial, final = 1.26583 0.103648
  Force max component initial, final = 0.129933 0.00904659
  Final line search alpha, max atom move = 9.53674e-07 8.6275e-09
  Iterations, force evaluations = 15 109

MPI task timing breakdown:
Section |  min time  |  avg time  |  max time  |%varavg| %total
---------------------------------------------------------------
Pair    | 0.10663    | 0.11759    | 0.12377    |   1.2 | 38.08
Kspace  | 0.17291    | 0.17564    | 0.17872    |   0.5 | 56.88
Neigh   | 0          | 0          | 0          |   0.0 |  0.00
Comm    | 0.010329   | 0.014123   | 0.02233    |   2.5 |  4.57
Output  | 1.7881e-05 | 1.9014e-05 | 2.1935e-05 |   0.0 |  0.01
Modify  | 0          | 0          | 0          |   0.0 |  0.00
Other   |            | 0.001414   |            |       |  0.46

Nlocal:    84 ave 87 max 78 min
Histogram: 1 0 0 0 0 3 2 4 1 1
Nghost:    2602.75 ave 2629 max 2582 min
Histogram: 3 1 0 1 1 3 0 1 1 1
Neighs:    18633.8 ave 19349 max 17219 min
Histogram: 1 0 0 0 1 2 1 3 3 1

Total # of neighbors = 223606
Ave neighs/atom = 221.831
Neighbor list builds = 0
Dangerous builds = 0
  triclinic box = (0 0 0) to (23.3007 23.3007 23.3007) with tilt (0 0 -0.077661)
WARNING: Resetting reneighboring criteria during minimization (../min.cpp:168)
Ewald initialization ...
  G vector (1/distance) = 0.365055
  estimated absolute RMS force accuracy = 1.94166e-05
  estimated relative force accuracy = 1.34841e-06
  KSpace vectors: actual max1d max3d = 2081 10 4630
                  kxmax kymax kzmax  = 10 10 10
Memory usage per processor = 4.56148 Mbytes
Step Temp E_pair E_mol TotEng Press 
     911           10   -18274.631            0   -18273.329   -8015.9914 
     924           10   -18274.658            0   -18273.356    -7950.955 
Loop time of 0.184979 on 12 procs for 13 steps with 1008 atoms

100.0% CPU use with 12 MPI tasks x no OpenMP threads

Minimization stats:
  Stopping criterion = linesearch alpha is zero
  Energy initial, next-to-last, final = 
        -18274.6305382     -18274.6578023     -18274.6578023
  Force two-norm initial, final = 0.843901 0.0943033
  Force max component initial, final = 0.0866195 0.00730392
  Final line search alpha, max atom move = 9.53674e-07 6.96556e-09
  Iterations, force evaluations = 13 65

MPI task timing breakdown:
Section |  min time  |  avg time  |  max time  |%varavg| %total
---------------------------------------------------------------
Pair    | 0.064044   | 0.070436   | 0.074028   |   0.9 | 38.08
Kspace  | 0.10353    | 0.1053     | 0.10704    |   0.3 | 56.93
Neigh   | 0          | 0          | 0          |   0.0 |  0.00
Comm    | 0.0060391  | 0.0083467  | 0.013232   |   1.9 |  4.51
Output  | 0          | 0          | 0          |   0.0 |  0.00
Modify  | 0          | 0          | 0          |   0.0 |  0.00
Other   |            | 0.0008962  |            |       |  0.48

Nlocal:    84 ave 87 max 78 min
Histogram: 1 0 0 0 0 3 2 4 1 1
Nghost:    2602.75 ave 2629 max 2582 min
Histogram: 3 1 0 1 1 3 0 1 1 1
Neighs:    18633.4 ave 19351 max 17228 min
Histogram: 1 0 0 0 1 2 2 2 3 1

Total # of neighbors = 223601
Ave neighs/atom = 221.826
Neighbor list builds = 0
Dangerous builds = 0
  triclinic box = (0 0 0) to (23.3007 23.3007 23.3007) with tilt (0 0 -0.038842)
WARNING: Resetting reneighboring criteria during minimization (../min.cpp:168)
Ewald initialization ...
  G vector (1/distance) = 0.365055
  estimated absolute RMS force accuracy = 1.94166e-05
  estimated relative force accuracy = 1.34841e-06
  KSpace vectors: actual max1d max3d = 2082 10 4630
                  kxmax kymax kzmax  = 10 10 10
Memory usage per processor = 4.56148 Mbytes
Step Temp E_pair E_mol TotEng Press 
     924           10    -18274.63            0   -18273.328   -8032.9428 
     933           10   -18274.637            0   -18273.336   -7997.7803 
Loop time of 0.156984 on 12 procs for 9 steps with 1008 atoms

99.8% CPU use with 12 MPI tasks x no OpenMP threads

Minimization stats:
  Stopping criterion = linesearch alpha is zero
  Energy initial, next-to-last, final = 
        -18274.6299471     -18274.6374753     -18274.6374753
  Force two-norm initial, final = 0.422204 0.0767836
  Force max component initial, final = 0.0433581 0.00772687
  Final line search alpha, max atom move = 1.90735e-06 1.47378e-08
  Iterations, force evaluations = 9 55

MPI task timing breakdown:
Section |  min time  |  avg time  |  max time  |%varavg| %total
---------------------------------------------------------------
Pair    | 0.054294   | 0.059846   | 0.06295    |   0.9 | 38.12
Kspace  | 0.087369   | 0.08936    | 0.090762   |   0.3 | 56.92
Neigh   | 0          | 0          | 0          |   0.0 |  0.00
Comm    | 0.0050399  | 0.0070371  | 0.011196   |   1.8 |  4.48
Output  | 0          | 0          | 0          |   0.0 |  0.00
Modify  | 0          | 0          | 0          |   0.0 |  0.00
Other   |            | 0.0007412  |            |       |  0.47

Nlocal:    84 ave 87 max 78 min
Histogram: 1 0 0 0 0 3 2 4 1 1
Nghost:    2602.75 ave 2629 max 2582 min
Histogram: 3 1 0 1 1 3 0 1 1 1
Neighs:    18632.5 ave 19357 max 17223 min
Histogram: 1 0 0 0 1 2 1 3 3 1

Total # of neighbors = 223590
Ave neighs/atom = 221.815
Neighbor list builds = 0
Dangerous builds = 0
  triclinic box = (0 0 0) to (23.3007 23.3007 23.3007) with tilt (0 0 0)
WARNING: Resetting reneighboring criteria during minimization (../min.cpp:168)
Ewald initialization ...
  G vector (1/distance) = 0.365055
  estimated absolute RMS force accuracy = 1.94166e-05
  estimated relative force accuracy = 1.34841e-06
  KSpace vectors: actual max1d max3d = 2084 10 4630
                  kxmax kymax kzmax  = 10 10 10
Memory usage per processor = 4.56148 Mbytes
Step Temp E_pair E_mol TotEng Press 
     933           10   -18274.603            0   -18273.301   -8045.4373 
     934           10   -18274.603            0   -18273.301   -8045.4373 
Loop time of 0.0672538 on 12 procs for 1 steps with 1008 atoms

99.5% CPU use with 12 MPI tasks x no OpenMP threads

Minimization stats:
  Stopping criterion = linesearch alpha is zero
  Energy initial, next-to-last, final = 
        -18274.6028408     -18274.6028408     -18274.6028408
  Force two-norm initial, final = 0.00471907 0.00471907
  Force max component initial, final = 0.000334041 0.000334041
  Final line search alpha, max atom move = 0.000488281 1.63106e-07
  Iterations, force evaluations = 1 23

MPI task timing breakdown:
Section |  min time  |  avg time  |  max time  |%varavg| %total
---------------------------------------------------------------
Pair    | 0.023266   | 0.025591   | 0.02692    |   0.5 | 38.05
Kspace  | 0.037641   | 0.038335   | 0.039089   |   0.2 | 57.00
Neigh   | 0          | 0          | 0          |   0.0 |  0.00
Comm    | 0.0021932  | 0.0030216  | 0.0048146  |   1.2 |  4.49
Output  | 0          | 0          | 0          |   0.0 |  0.00
Modify  | 0          | 0          | 0          |   0.0 |  0.00
Other   |            | 0.0003059  |            |       |  0.45

Nlocal:    84 ave 87 max 78 min
Histogram: 1 0 0 0 0 3 2 4 1 1
Nghost:    2602.75 ave 2629 max 2582 min
Histogram: 3 1 0 1 1 3 0 1 1 1
Neighs:    18630.8 ave 19358 max 17219 min
Histogram: 1 0 0 0 1 2 2 2 3 1

Total # of neighbors = 223570
Ave neighs/atom = 221.796
Neighbor list builds = 0
Dangerous builds = 0
  triclinic box = (0 0 0) to (23.3007 23.3007 23.3007) with tilt (0 0 0.038842)
WARNING: Resetting reneighboring criteria during minimization (../min.cpp:168)
Ewald initialization ...
  G vector (1/distance) = 0.365055
  estimated absolute RMS force accuracy = 1.94166e-05
  estimated relative force accuracy = 1.34841e-06
  KSpace vectors: actual max1d max3d = 2082 10 4630
                  kxmax kymax kzmax  = 10 10 10
Memory usage per processor = 4.56148 Mbytes
Step Temp E_pair E_mol TotEng Press 
     934           10   -18274.549            0   -18273.248   -8053.3616 
     941           10   -18274.557            0   -18273.256   -8073.9681 
Loop time of 0.151117 on 12 procs for 7 steps with 1008 atoms

99.9% CPU use with 12 MPI tasks x no OpenMP threads

Minimization stats:
  Stopping criterion = linesearch alpha is zero
  Energy initial, next-to-last, final = 
        -18274.5493933     -18274.5574055     -18274.5574055
  Force two-norm initial, final = 0.421953 0.0945844
  Force max component initial, final = 0.0431358 0.00742061
  Final line search alpha, max atom move = 9.53674e-07 7.07684e-09
  Iterations, force evaluations = 7 53

MPI task timing breakdown:
Section |  min time  |  avg time  |  max time  |%varavg| %total
---------------------------------------------------------------
Pair    | 0.052211   | 0.0576     | 0.060416   |   0.8 | 38.12
Kspace  | 0.083859   | 0.086008   | 0.08736    |   0.3 | 56.91
Neigh   | 0          | 0          | 0          |   0.0 |  0.00
Comm    | 0.0049255  | 0.0068102  | 0.010881   |   1.8 |  4.51
Output  | 0          | 0          | 0          |   0.0 |  0.00
Modify  | 0          | 0          | 0          |   0.0 |  0.00
Other   |            | 0.0006992  |            |       |  0.46

Nlocal:    84 ave 87 max 78 min
Histogram: 1 0 0 0 0 3 2 4 1 1
Nghost:    2602.75 ave 2629 max 2582 min
Histogram: 3 1 0 1 1 3 0 1 1 1
Neighs:    18631.4 ave 19362 max 17210 min
Histogram: 1 0 0 0 1 2 2 2 3 1

Total # of neighbors = 223577
Ave neighs/atom = 221.803
Neighbor list builds = 0
Dangerous builds = 0
  triclinic box = (0 0 0) to (23.3007 23.3007 23.3007) with tilt (0 0 0.077661)
WARNING: Resetting reneighboring criteria during minimization (../min.cpp:168)
Ewald initialization ...
  G vector (1/distance) = 0.365055
  estimated absolute RMS force accuracy = 1.94166e-05
  estimated relative force accuracy = 1.34841e-06
  KSpace vectors: actual max1d max3d = 2081 10 4630
                  kxmax kymax kzmax  = 10 10 10
Memory usage per processor = 4.56148 Mbytes
Step Temp E_pair E_mol TotEng Press 
     941           10   -18274.467            0   -18273.165   -8056.1096 
     950           10   -18274.492            0   -18273.191   -8112.3211 
     954           10   -18274.494            0   -18273.192   -8117.2121 
Loop time of 0.18506 on 12 procs for 13 steps with 1008 atoms

99.8% CPU use with 12 MPI tasks x no OpenMP threads

Minimization stats:
  Stopping criterion = linesearch alpha is zero
  Energy initial, next-to-last, final = 
         -18274.466748     -18274.4940695     -18274.4940695
  Force two-norm initial, final = 0.843886 0.0949556
  Force max component initial, final = 0.0863182 0.0075475
  Final line search alpha, max atom move = 9.53674e-07 7.19786e-09
  Iterations, force evaluations = 13 65

MPI task timing breakdown:
Section |  min time  |  avg time  |  max time  |%varavg| %total
---------------------------------------------------------------
Pair    | 0.064064   | 0.070472   | 0.074098   |   0.9 | 38.08
Kspace  | 0.10345    | 0.10534    | 0.10714    |   0.3 | 56.92
Neigh   | 0          | 0          | 0          |   0.0 |  0.00
Comm    | 0.0059869  | 0.0083322  | 0.013222   |   1.9 |  4.50
Output  | 2.1219e-05 | 2.1617e-05 | 2.408e-05  |   0.0 |  0.01
Modify  | 0          | 0          | 0          |   0.0 |  0.00
Other   |            | 0.0008943  |            |       |  0.48

Nlocal:    84 ave 87 max 78 min
Histogram: 1 0 0 0 0 3 2 4 1 1
Nghost:    2602.75 ave 2629 max 2582 min
Histogram: 3 1 0 1 1 3 0 1 1 1
Neighs:    18630.7 ave 19357 max 17210 min
Histogram: 1 0 0 0 1 2 2 2 3 1

Total # of neighbors = 223568
Ave neighs/atom = 221.794
Neighbor list builds = 0
Dangerous builds = 0
  triclinic box = (0 0 0) to (23.3007 23.3007 23.3007) with tilt (0 0 0.116503)
WARNING: Resetting reneighboring criteria during minimization (../min.cpp:168)
Ewald initialization ...
  G vector (1/distance) = 0.365055
  estimated absolute RMS force accuracy = 1.94166e-05
  estimated relative force accuracy = 1.34841e-06
  KSpace vectors: actual max1d max3d = 2079 10 4630
                  kxmax kymax kzmax  = 10 10 10
Memory usage per processor = 4.56148 Mbytes
Step Temp E_pair E_mol TotEng Press 
     954           10   -18274.357            0   -18273.055   -8054.1569 
     965           10   -18274.416            0   -18273.115   -8157.9735 
Loop time of 0.18563 on 12 procs for 11 steps with 1008 atoms

100.0% CPU use with 12 MPI tasks x no OpenMP threads

Minimization stats:
  Stopping criterion = linesearch alpha is zero
  Energy initial, next-to-last, final = 
        -18274.3566826      -18274.416264      -18274.416264
  Force two-norm initial, final = 1.26615 0.178415
  Force max component initial, final = 0.129511 0.0142051
  Final line search alpha, max atom move = 2.38419e-07 3.38676e-09
  Iterations, force evaluations = 11 65

MPI task timing breakdown:
Section |  min time  |  avg time  |  max time  |%varavg| %total
---------------------------------------------------------------
Pair    | 0.063902   | 0.070397   | 0.074472   |   0.9 | 37.92
Kspace  | 0.10402    | 0.10592    | 0.10755    |   0.4 | 57.06
Neigh   | 0          | 0          | 0          |   0.0 |  0.00
Comm    | 0.0060759  | 0.0084325  | 0.013337   |   1.9 |  4.54
Output  | 0          | 0          | 0          |   0.0 |  0.00
Modify  | 0          | 0          | 0          |   0.0 |  0.00
Other   |            | 0.0008757  |            |       |  0.47

Nlocal:    84 ave 87 max 78 min
Histogram: 1 0 0 0 0 3 2 4 1 1
Nghost:    2602.75 ave 2629 max 2582 min
Histogram: 3 1 0 1 1 3 0 1 1 1
Neighs:    18631.4 ave 19359 max 17201 min
Histogram: 1 0 0 0 1 2 1 3 3 1

Total # of neighbors = 223577
Ave neighs/atom = 221.803
Neighbor list builds = 0
Dangerous builds = 0
Total wall time: 0:00:16
