ITEM: TIMESTEP
0
ITEM: NUMBER OF ATOMS
1008
ITEM: BOX BOUNDS xy xz yz pp pp pp
0.0 23.3006801605 0.0
0.0 23.3006801605 0.0
0.0 23.3006801605 0.0
ITEM: ATOMS id type x y z
1 1 4.117929935455322 -7.071493148803711 -8.140579223632812 
2 1 0.091931156814098 6.208838939666748 -1.306038141250610 
3 1 -10.989835739135742 5.547594070434570 -3.234497547149658 
4 1 -1.370560526847839 3.167114734649658 -1.350798606872559 
5 1 5.930566310882568 -11.640802383422852 -11.486424446105957 
6 1 0.058161754161119 -2.380222558975220 10.244263648986816 
7 1 8.040582656860352 0.137860998511314 -3.347759962081909 
8 1 -4.040793895721436 -1.219086170196533 -4.649857521057129 
9 1 -9.711046218872070 10.316154479980469 -1.602530837059021 
10 1 5.201147079467773 -0.222754746675491 -9.690594673156738 
11 1 9.628461837768555 2.137433528900146 7.092858314514160 
12 1 9.121865272521973 -2.866071462631226 4.537793636322021 
13 1 0.732719302177429 3.316656827926636 9.520703315734863 
14 1 -6.778267860412598 4.424240112304688 -1.185359597206116 
15 1 -5.335358619689941 -3.905345439910889 5.412364006042480 
16 1 2.895095825195312 -9.081654548645020 4.450663089752197 
17 1 -10.442964553833008 3.675452709197998 5.796205043792725 
18 1 -9.590395927429199 2.219210624694824 -2.274828195571899 
19 1 -0.877886295318604 -1.669273853302002 4.816852569580078 
20 1 -10.195603370666504 -2.560185194015503 8.320374488830566 
21 1 10.877719879150391 -5.688606739044189 5.219924926757812 
22 1 0.082504898309708 -7.264217376708984 -3.395245075225830 
23 1 -5.793540477752686 -7.145082950592041 7.317813873291016 
24 1 7.857775688171387 4.770103931427002 9.044433593750000 
25 1 7.205340862274170 -2.567414522171021 9.289538383483887 
26 1 -5.648734092712402 6.737759113311768 6.879734992980957 
27 1 8.115398406982422 -10.809471130371094 2.394325494766235 
28 1 0.325938194990158 10.293889999389648 6.170792102813721 
29 1 -3.044548749923706 -11.035676956176758 -4.642754077911377 
30 1 -6.057911396026611 3.033817291259766 -7.323744297027588 
31 1 -1.379246234893799 5.181416988372803 -7.440439701080322 
32 1 11.607405662536621 6.898770332336426 6.181623935699463 
33 1 4.602370262145996 6.014429569244385 1.470732450485229 
34 1 2.101092815399170 3.378368377685547 0.137700468301773 
35 1 0.379675477743149 -1.579824209213257 -5.481176853179932 
36 1 -10.499832153320312 -11.353732109069824 10.220241546630859 
37 1 11.513036727905273 -0.614720284938812 5.593900680541992 
38 1 -4.633914947509766 1.414487957954407 -1.485605120658875 
39 1 4.441274166107178 -4.088177204132080 -6.172245979309082 
40 1 -7.236887931823730 -4.590584754943848 2.429417133331299 
41 1 -3.227027416229248 -6.871644496917725 -5.229128837585449 
42 1 3.152976036071777 -10.280714035034180 -9.891371726989746 
43 1 -8.466574668884277 5.330147743225098 -9.070533752441406 
44 1 -2.314056873321533 -8.984361648559570 -1.789474725723267 
45 1 -8.397165298461914 10.739723205566406 7.650530815124512 
46 1 0.820332527160645 9.347670555114746 9.759540557861328 
47 1 7.312877655029297 -8.995998382568359 -4.461537837982178 
48 1 4.933413028717041 -8.944752693176270 8.776767730712891 
49 1 3.553371906280518 11.545258522033691 -5.786465644836426 
50 1 -10.717991828918457 -5.667994976043701 2.161763191223145 
51 1 -6.001962661743164 10.929960250854492 5.164134025573730 
52 1 -11.004411697387695 -0.597701072692871 -0.882340610027313 
53 1 -1.959905505180359 0.987630605697632 1.074038624763489 
54 1 -1.380866885185242 -0.589890658855438 -2.210654497146606 
55 1 3.636212110519409 -4.067444801330566 9.869565010070801 
56 1 3.010648965835571 8.288755416870117 -4.104340553283691 
57 1 6.826631546020508 -5.730861186981201 -10.546222686767578 
58 1 3.769487857818604 5.447349071502686 -1.794577717781067 
59 1 3.952632427215576 9.322356224060059 -8.851329803466797 
60 1 0.442839413881302 5.289964675903320 3.067177534103394 
61 1 2.420808553695679 0.952286958694458 -7.244601249694824 
62 1 8.547281265258789 7.603305816650391 -5.989584922790527 
63 1 -1.729946494102478 -5.535052299499512 -0.450537055730820 
64 1 -5.021374702453613 -6.498282432556152 0.578536570072174 
65 1 8.831599235534668 6.090054988861084 -2.725417852401733 
66 1 0.252703189849854 -3.332473039627075 -8.859683036804199 
67 1 5.452644348144531 -3.779751300811768 1.844825983047485 
68 1 9.570814132690430 7.370316505432129 10.906831741333008 
69 1 -11.500103950500488 -9.667312622070312 -2.368870735168457 
70 1 -6.785839080810547 -2.907922267913818 -6.611489295959473 
71 1 -0.975660502910614 9.644519805908203 -6.097293376922607 
72 1 3.832037210464478 1.165253281593323 2.599446773529053 
73 1 -7.439302921295166 0.420124948024750 -4.938377857208252 
74 1 -3.443363428115845 4.536317825317383 -10.298461914062500 
75 1 -10.556388854980469 -6.077088356018066 10.862524032592773 
76 1 3.664117336273193 10.513985633850098 3.826154470443726 
77 1 3.348042249679565 10.093660354614258 -1.368198037147522 
78 1 10.760344505310059 11.221660614013672 0.206171169877052 
79 1 4.037654399871826 -9.798035621643066 -2.835026979446411 
80 1 10.113157272338867 0.652211546897888 -9.613081932067871 
81 1 -10.100374221801758 1.047721505165100 8.536557197570801 
82 1 1.799739718437195 -6.457066535949707 0.059492018073797 
83 1 -2.542947053909302 9.410016059875488 0.263754874467850 
84 1 1.875242948532104 -0.546381115913391 -10.449880599975586 
85 1 -7.835552215576172 -3.054767131805420 10.771667480468750 
86 1 -8.392291069030762 9.517910957336426 1.726358532905579 
87 1 7.674582004547119 8.251476287841797 7.992862701416016 
88 1 -2.787632226943970 1.842873334884644 -6.520306110382080 
89 1 -2.931478500366211 5.455307483673096 4.836352348327637 
90 1 9.673815727233887 -4.257577896118164 -8.626417160034180 
91 1 3.343405723571777 11.540676116943359 7.004596710205078 
92 1 3.605671167373657 1.596121430397034 -3.025732517242432 
93 1 -7.128557205200195 8.083853721618652 10.069672584533691 
94 1 -8.715648651123047 7.878305435180664 5.086914062500000 
95 1 -8.673394203186035 10.198950767517090 -10.483719825744629 
96 1 5.841695308685303 4.757873058319092 -9.596527099609375 
97 1 -2.141484498977661 -9.433300971984863 9.805128097534180 
98 1 10.580928802490234 -7.404041290283203 -0.057648628950119 
99 1 0.188259586691856 -7.113061904907227 9.924666404724121 
100 1 -7.069403648376465 8.091110229492188 -1.995836853981018 
101 1 4.080616950988770 -1.053514122962952 5.656834602355957 
102 1 6.692157745361328 2.097431659698486 11.169008255004883 
103 1 0.501136064529419 -9.867645263671875 7.279552459716797 
104 1 -10.287732124328613 0.994634985923767 -11.154125213623047 
105 1 7.266621112823486 11.177936553955078 -5.600796699523926 
106 1 -9.652970314025879 -1.833694696426392 -4.214653015136719 
107 1 -5.201303482055664 -4.879411697387695 10.161455154418945 
108 1 -1.672543406486511 6.223129272460938 -4.394237041473389 
109 1 -10.456123352050781 8.131769180297852 -8.050789833068848 
110 1 -1.168553233146667 6.334198951721191 10.806378364562988 
111 1 -1.726963043212891 7.783074378967285 -9.315310478210449 
112 1 7.589686870574951 -7.539911270141602 3.962852001190186 
113 1 11.134482383728027 0.574214935302734 -4.720795631408691 
114 1 11.338234901428223 8.944451332092285 -4.383074283599854 
115 1 6.728420257568359 3.528643846511841 -3.084355831146240 
116 1 -7.969220161437988 -7.654228687286377 4.195134639739990 
117 1 -2.290630340576172 -3.830293893814087 7.615820407867432 
118 1 -3.177401065826416 9.125252723693848 6.274575710296631 
119 1 3.520440340042114 -6.965833663940430 11.649835586547852 
120 1 11.167114257812500 9.623119354248047 8.664870262145996 
121 1 9.866078376770020 4.127985954284668 -5.660922050476074 
122 1 -6.579772472381592 11.244807243347168 -3.991128206253052 
123 1 11.493473052978516 4.257012367248535 8.978264808654785 
124 1 7.540493488311768 -11.465601921081543 8.669354438781738 
125 1 -7.196089267730713 0.615457296371460 11.116022109985352 
126 1 -9.912424087524414 1.455550074577332 3.085836172103882 
127 1 -10.641091346740723 2.689777851104736 -7.570094585418701 
128 1 -3.047979116439819 -0.020790005102754 7.329967975616455 
129 1 2.640853404998779 -6.265985965728760 7.056237697601318 
130 1 -3.892178058624268 -4.348116397857666 -8.005062103271484 
131 1 -3.652901887893677 6.282722473144531 -1.461737632751465 
132 1 4.892970085144043 -7.750965118408203 1.367633938789368 
133 1 -5.438831329345703 7.515128612518311 -9.685022354125977 
134 1 -7.899306774139404 0.238870874047279 -8.482284545898438 
135 1 7.317441463470459 9.582154273986816 -8.913603782653809 
136 1 -8.297560691833496 -8.823028564453125 8.884077072143555 
137 1 -1.587261199951172 -4.074022293090820 -3.633633136749268 
138 1 -7.337520122528076 -0.808367788791656 1.651086211204529 
139 1 -5.161762714385986 -10.816205978393555 8.174146652221680 
140 1 -4.563336849212646 3.781067132949829 -3.862278699874878 
141 1 8.502918243408203 -9.049996376037598 -10.611412048339844 
142 1 1.571302890777588 8.317583084106445 1.426194667816162 
143 1 0.316793531179428 1.738404631614685 3.908891916275024 
144 1 8.718633651733398 11.002816200256348 -2.382781982421875 
145 1 7.341132164001465 -9.154942512512207 -0.843358337879181 
146 1 -11.329875946044922 -2.632079839706421 -11.326258659362793 
147 1 -1.944446802139282 1.169118642807007 10.577907562255859 
148 1 5.697731018066406 0.867948174476624 -0.498157680034637 
149 1 -4.758327960968018 -4.686097145080566 -2.678351640701294 
150 1 6.522187709808350 -2.442597866058350 -1.479626417160034 
151 1 9.566044807434082 10.897831916809082 -11.456654548645020 
152 1 1.076820373535156 -3.014878988265991 -1.155025005340576 
153 1 -1.414428472518921 -2.785639762878418 1.772883057594299 
154 1 5.153078079223633 6.944521427154541 -6.712116241455078 
155 1 9.370140075683594 -1.715505838394165 0.801564931869507 
156 1 -6.533882617950439 2.873574733734131 1.843039035797119 
157 1 5.913844585418701 1.808880567550659 7.554242610931396 
158 1 9.750140190124512 -0.092225842177868 10.200349807739258 
159 1 -7.661269664764404 6.041144371032715 2.106406927108765 
160 1 -3.532167673110962 4.367825984954834 9.064580917358398 
161 1 -6.831227302551270 0.630596160888672 5.017106056213379 
162 1 -3.557423830032349 9.268035888671875 9.813254356384277 
163 1 11.597942352294922 -7.305920600891113 -9.243412017822266 
164 1 -2.011450290679932 -4.892408847808838 -11.235295295715332 
165 1 7.664145469665527 3.987779378890991 0.296413362026215 
166 1 -7.576755046844482 10.717175483703613 -7.099046230316162 
167 1 -5.593978881835938 -8.529861450195312 -3.188446521759033 
168 1 8.161399841308594 -2.347359418869019 -10.375223159790039 
169 1 1.083202958106995 -8.930455207824707 -6.881097316741943 
170 1 -0.215858206152916 9.748229980468750 -2.525445222854614 
171 1 6.952326297760010 -5.802933692932129 8.963722229003906 
172 1 -8.609671592712402 7.457287788391113 -5.488821983337402 
173 1 3.456001758575439 -2.258813381195068 -3.389986753463745 
174 1 3.060671329498291 -5.725310325622559 3.641041278839111 
175 1 -11.292782783508301 -9.481645584106445 6.962042808532715 
176 1 -4.968626976013184 6.378234386444092 -6.210603713989258 
177 1 9.012343406677246 -4.965420246124268 1.792620778083801 
178 1 4.948356628417969 3.949832439422607 4.723081111907959 
179 1 6.116582870483398 -10.108902931213379 -7.913135528564453 
180 1 -11.118293762207031 4.580208778381348 -10.964474678039551 
181 1 -10.982977867126465 -1.899710893630981 -7.862694740295410 
182 1 2.342680215835571 -9.961401939392090 0.296504706144333 
183 1 4.000356197357178 8.018653869628906 8.131365776062012 
184 1 -3.748115539550781 -8.371445655822754 -10.358386993408203 
185 1 -7.275656223297119 -7.095010280609131 -11.000630378723145 
186 1 0.303836286067963 1.637236475944519 -4.393179416656494 
187 1 -5.290111541748047 -1.872564911842346 -10.227563858032227 
188 1 9.403913497924805 8.250084877014160 0.283185631036758 
189 1 9.528838157653809 6.249082565307617 -8.777678489685059 
190 1 2.470062732696533 -10.488786697387695 10.252022743225098 
191 1 -6.515990734100342 4.453269958496094 11.214802742004395 
192 1 10.510650634765625 10.655472755432129 -7.236042976379395 
193 1 -0.490292698144913 11.497609138488770 1.953822374343872 
194 1 2.347819089889526 7.194258689880371 -10.912157058715820 
195 1 -8.960032463073730 -8.329773902893066 -4.443035125732422 
196 1 5.807780265808105 -4.540992736816406 5.516803264617920 
197 1 -8.405660629272461 -4.792342662811279 -3.495351791381836 
198 1 7.547981262207031 2.100089550018311 -7.949439525604248 
199 1 8.890875816345215 -1.265496969223022 -6.721251487731934 
200 1 10.834925651550293 -3.993076086044312 -1.330618262290955 
201 1 -9.566379547119141 -11.008484840393066 4.325448989868164 
202 1 3.852979183197021 -3.714029073715210 -9.797849655151367 
203 1 8.467210769653320 2.947515249252319 3.752465009689331 
204 1 -8.473906517028809 -7.044970035552979 -0.439972043037415 
205 1 -6.737525463104248 2.525092124938965 8.271232604980469 
206 1 10.262681961059570 5.783064842224121 2.104157686233521 
207 1 -6.439718246459961 -6.439968585968018 -7.472627162933350 
208 1 -2.234045028686523 -10.495275497436523 -8.117881774902344 
209 1 -0.049945842474699 -8.168041229248047 2.468677282333374 
210 1 5.388321399688721 -0.447800964117050 -5.949612140655518 
211 1 5.878215789794922 7.885630130767822 11.428693771362305 
212 1 -4.175111770629883 -0.969806075096130 3.368274927139282 
213 1 2.187536716461182 5.646740913391113 6.476295471191406 
214 1 6.159241199493408 -10.367931365966797 5.479273796081543 
215 1 -1.699772119522095 10.956629753112793 -11.164274215698242 
216 1 6.405637741088867 9.265219688415527 1.814370512962341 
217 1 -2.313065767288208 -1.037187814712524 -7.949799060821533 
218 1 4.931003093719482 3.253718137741089 -6.158843994140625 
219 1 7.106998920440674 -6.132356643676758 -6.728317737579346 
220 1 -6.466294288635254 -1.329320311546326 7.945849895477295 
221 1 -1.040454030036926 8.182679176330566 3.495584964752197 
222 1 -1.976755023002625 -7.442649364471436 6.686279773712158 
223 2 -5.209114551544189 -1.198818325996399 1.658066272735596 
224 2 -9.124593734741211 8.449187278747559 -1.398844838142395 
225 2 10.273341178894043 9.500177383422852 4.597889900207520 
226 2 6.400435447692871 2.651540994644165 -0.340308636426926 
227 2 -4.362550258636475 -8.152550697326660 1.105230927467346 
228 2 9.215239524841309 -2.803211688995361 -5.448931217193604 
229 2 9.207130432128906 -8.794970512390137 -5.231634140014648 
230 2 -8.184708595275879 7.675446033477783 1.047849059104919 
231 2 -6.090498447418213 9.533208847045898 -3.168488264083862 
232 2 10.995858192443848 10.958978652954102 10.217979431152344 
233 2 -5.853227138519287 2.693609237670898 -0.584097683429718 
234 2 6.613833427429199 -10.754938125610352 3.678057670593262 
235 2 7.295135974884033 -4.355984687805176 -2.239134788513184 
236 2 10.723426818847656 -5.919646263122559 -1.332917571067810 
237 2 9.149075508117676 10.123242378234863 -8.499217033386230 
238 2 -4.975947380065918 -10.356849670410156 -10.912955284118652 
239 2 11.020548820495605 -3.568327188491821 -7.423707485198975 
240 2 -3.477825403213501 8.040578842163086 -9.916794776916504 
241 2 7.460289001464844 7.662032604217529 10.210875511169434 
242 2 6.050029277801514 3.522656202316284 -7.921627998352051 
243 2 -9.520693778991699 -11.321465492248535 -9.646454811096191 
244 2 -2.848181962966919 8.704101562500000 4.277591228485107 
245 2 -0.947787106037140 9.493946075439453 -9.919485092163086 
246 2 4.380538463592529 -10.460141181945801 -6.957288265228271 
247 2 6.351994991302490 -5.866789817810059 -8.592922210693359 
248 2 9.321042060852051 10.044701576232910 -0.674501180648804 
249 2 -6.315808296203613 -9.020401954650879 8.166693687438965 
250 2 -6.874199390411377 -10.914713859558105 -8.042819976806641 
251 2 -3.927217960357666 10.170598983764648 -1.106772303581238 
252 2 -11.345334053039551 -10.070678710937500 11.452066421508789 
253 2 1.658103466033936 4.093396186828613 7.747986316680908 
254 2 -9.121631622314453 1.645552873611450 -8.097321510314941 
255 2 -11.517450332641602 7.440224170684814 -3.257066011428833 
256 2 -6.859559059143066 10.651313781738281 1.829655170440674 
257 2 10.894195556640625 0.655066192150116 -0.599380612373352 
258 2 10.448735237121582 2.599393129348755 -4.381939411163330 
259 2 11.503598213195801 8.508583068847656 7.197665214538574 
260 2 11.179730415344238 10.859522819519043 -10.366037368774414 
261 2 4.587954998016357 -3.485806941986084 -8.008793830871582 
262 2 4.610620975494385 5.613336086273193 3.501660346984863 
263 2 -0.387374430894852 -8.671835899353027 -2.179024934768677 
264 2 -3.768755674362183 -5.234031200408936 11.395936012268066 
265 2 -3.695905447006226 0.590100705623627 0.062738321721554 
266 2 -3.719270229339600 -3.866985559463501 6.467910289764404 
267 2 -2.429760217666626 -10.549327850341797 -2.895499229431152 
268 2 -4.319333076477051 8.158005714416504 -5.181764602661133 
269 2 9.324106216430664 7.324397087097168 -1.367027878761292 
270 2 -9.772493362426758 10.671348571777344 11.344091415405273 
271 2 -7.834384441375732 -8.957797050476074 -10.254095077514648 
272 2 3.269668340682983 -4.502062320709229 -11.547641754150391 
273 2 -8.673456192016602 -5.945867538452148 -1.951103687286377 
274 2 10.235196113586426 -3.104682207107544 -10.258360862731934 
275 2 -9.110385894775391 -0.106951683759689 2.118641853332520 
276 2 5.479404926300049 -1.038011074066162 -0.635562479496002 
277 2 7.791841030120850 4.544098377227783 -1.671545028686523 
278 2 -3.430572509765625 -0.042585015296936 -6.187139987945557 
279 2 7.352226257324219 8.442866325378418 0.191615313291550 
280 2 -4.693971157073975 -10.917356491088867 1.280709981918335 
281 2 2.569044589996338 -9.692790985107422 -1.536691308021545 
282 2 -10.170649528503418 -3.750592231750488 -3.842187881469727 
283 2 -9.746633529663086 -8.346178054809570 7.523379325866699 
284 2 -8.567789077758789 1.214324355125427 4.446515560150146 
285 2 9.067328453063965 2.314481496810913 -9.619279861450195 
286 2 7.805622100830078 -2.529206752777100 11.113237380981445 
287 2 -2.369562864303589 -1.790391683578491 3.409643888473511 
288 2 9.299020767211914 2.700896739959717 -0.272061139345169 
289 2 -6.719601154327393 6.412678718566895 11.064687728881836 
290 2 -8.611619949340820 9.325088500976562 6.448814868927002 
291 2 11.182707786560059 7.221395492553711 -8.471359252929688 
292 2 2.015830755233765 6.085731983184814 -1.325322747230530 
293 2 -7.909206390380859 -3.244169712066650 -4.955428123474121 
294 2 -3.185598134994507 0.715659499168396 2.681947469711304 
295 2 -10.334612846374512 -6.084317684173584 -8.474032402038574 
296 2 -4.487452030181885 6.457116603851318 5.349740028381348 
297 2 3.483298540115356 -5.701036453247070 -9.255104064941406 
298 2 -0.955306708812714 11.199363708496094 -7.650098800659180 
299 2 -8.753410339355469 -10.229980468750000 -4.209497928619385 
300 2 -2.233912467956543 7.354660987854004 6.248164176940918 
301 2 1.532562732696533 -10.840578079223633 -6.302258014678955 
302 2 -8.235937118530273 1.840143442153931 -3.728811740875244 
303 2 -7.414339542388916 -6.100877285003662 -9.279303550720215 
304 2 -6.779114723205566 -3.903180122375488 9.463361740112305 
305 2 -1.829322457313538 0.942799866199493 -8.167909622192383 
306 2 -2.079176664352417 -9.693618774414062 -0.063291132450104 
307 2 -2.652176618576050 3.881472110748291 3.580618381500244 
308 2 2.792265415191650 -0.336773097515106 1.670974135398865 
309 2 2.215528964996338 -3.839371681213379 -2.711580514907837 
310 2 -9.270310401916504 -4.017006874084473 7.096406459808350 
311 2 7.509167671203613 -11.521686553955078 6.392173290252686 
312 2 -5.104897499084473 -2.255250453948975 -5.960032939910889 
313 2 5.809085369110107 7.882597923278809 7.248548507690430 
314 2 1.444311857223511 -6.151559352874756 -4.319494724273682 
315 2 3.962797164916992 4.055838584899902 -9.766798019409180 
316 2 -0.028415057808161 8.908676147460938 4.931028366088867 
317 2 1.007740378379822 -11.104701995849609 1.050014853477478 
318 2 -8.018905639648438 -3.490501880645752 -7.899260997772217 
319 2 6.022408485412598 -10.780120849609375 9.753617286682129 
320 2 -11.126338958740234 -11.095547676086426 0.854040205478668 
321 2 -3.382376432418823 -4.879052162170410 -4.236443042755127 
322 2 1.697039127349854 7.405164241790771 -5.303107261657715 
323 2 -8.565819740295410 2.030107498168945 8.029722213745117 
324 2 10.214778900146484 -8.666977882385254 -9.371571540832520 
325 2 -4.999904632568359 -10.293258666992188 6.267827510833740 
326 2 11.220179557800293 -0.860983908176422 -9.152000427246094 
327 2 -10.645657539367676 -3.987426757812500 -0.922754526138306 
328 2 -2.154204368591309 2.962628841400146 0.508804142475128 
329 2 8.421052932739258 11.428602218627930 10.336722373962402 
330 2 7.150653362274170 10.021092414855957 8.454890251159668 
331 2 9.668670654296875 6.646464347839355 5.644655227661133 
332 2 -7.074858188629150 -3.889813661575317 4.307084560394287 
333 2 -2.365951538085938 -7.942940711975098 -6.626741886138916 
334 2 -6.406755924224854 1.540741443634033 -8.857220649719238 
335 2 3.038720846176147 6.124467372894287 -3.572061538696289 
336 2 5.938261032104492 -3.683807134628296 -0.086625702679157 
337 2 7.834502220153809 -10.940859794616699 -1.337942004203796 
338 2 -1.005672335624695 -5.945495128631592 10.779088020324707 
339 2 -9.598465919494629 0.753947257995605 -1.044141054153442 
340 2 -9.005268096923828 -6.297710895538330 -4.518064975738525 
341 2 7.235305309295654 9.796700477600098 -2.519767761230469 
342 2 7.883346080780029 3.722173690795898 10.694045066833496 
343 2 -11.261310577392578 5.281602859497070 5.289726734161377 
344 2 8.390110969543457 7.745179176330566 -8.091894149780273 
345 2 -4.964156150817871 4.766943454742432 -7.391103267669678 
346 2 -11.184054374694824 2.962738037109375 -1.185891151428223 
347 2 4.998162269592285 -2.773351192474365 5.425863742828369 
348 2 10.451395034790039 4.844342231750488 -2.406385898590088 
349 2 4.763484001159668 7.788598537445068 9.872771263122559 
350 2 9.522990226745605 -10.990722656250000 1.135947465896606 
351 2 -4.999107837677002 -7.362613201141357 -6.293049335479736 
352 2 4.913733482360840 3.114734411239624 11.106193542480469 
353 2 -5.866352558135986 -11.031989097595215 3.869333744049072 
354 2 1.134762287139893 -4.925302028656006 6.303016185760498 
355 2 3.558879375457764 -10.684664726257324 8.649384498596191 
356 2 2.448690652847290 -5.897702217102051 1.792776107788086 
357 2 3.617522716522217 -2.196793794631958 10.163102149963379 
358 2 1.961564064025879 -1.906314492225647 -4.514559268951416 
359 2 -4.263739585876465 -8.920967102050781 -1.897157073020935 
360 2 9.948484420776367 1.971868634223938 3.091544866561890 
361 2 -11.568372726440430 -5.989134311676025 7.034755229949951 
362 2 3.328355550765991 11.637072563171387 -0.038419470191002 
363 2 8.749890327453613 -2.378471136093140 -8.353212356567383 
364 2 -8.491447448730469 -3.733924865722656 -10.934087753295898 
365 2 -9.493803024291992 6.735038757324219 6.666684627532959 
366 2 -4.493581771850586 11.137232780456543 -4.022433280944824 
367 2 -7.631161689758301 4.414689540863037 -10.604052543640137 
368 2 -0.703303873538971 -5.605900287628174 -2.336297273635864 
369 2 0.116273254156113 -7.452408790588379 -9.426877021789551 
370 2 -2.282432556152344 8.764986991882324 -7.604558944702148 
371 2 -8.229384422302246 -5.977434635162354 -6.864155292510986 
372 2 -4.112557888031006 -7.536459445953369 3.851386547088623 
373 2 -2.593927860260010 -1.866678833961487 8.073994636535645 
374 2 11.255422592163086 5.206676483154297 -4.804788589477539 
375 2 -1.602286815643311 -3.267416238784790 10.818839073181152 
376 2 -0.181470900774002 -6.448602676391602 0.416925907135010 
377 2 4.531661510467529 -2.194035053253174 -5.465029239654541 
378 2 10.251775741577148 -3.788823843002319 -3.154847621917725 
379 2 6.890197753906250 -9.951614379882812 -11.206686019897461 
380 2 -11.565483093261719 -8.281888008117676 5.507087230682373 
381 2 -6.901264667510986 4.572097778320312 3.187808990478516 
382 2 10.447911262512207 9.689763069152832 1.540202498435974 
383 2 -5.368369579315186 -0.370504647493362 -1.499833106994629 
384 2 -0.451266080141068 -8.690342903137207 10.979043960571289 
385 2 -9.937650680541992 8.617375373840332 -9.886178970336914 
386 2 -7.290149211883545 4.317590236663818 -2.986377954483032 
387 2 -4.979731082916260 3.127116203308105 8.475658416748047 
388 2 7.071391105651855 6.907248020172119 -2.691687822341919 
389 2 -7.948348522186279 7.891114711761475 -3.742699384689331 
390 2 4.096194267272949 9.973257064819336 7.672772407531738 
391 2 -10.822705268859863 -0.655173957347870 8.947593688964844 
392 2 1.938598036766052 5.353072643280029 -6.899455070495605 
393 2 -7.323510646820068 -1.004712939262390 -6.580344200134277 
394 2 4.792915821075439 0.004564372822642 3.925484180450439 
395 2 -1.039176225662231 5.195628166198730 1.732286572456360 
396 2 10.911596298217773 -1.980397939682007 4.154721736907959 
397 2 -6.472739696502686 3.681906223297119 -5.472061157226562 
398 2 -1.122897028923035 -1.039904356002808 -6.454535961151123 
399 2 -3.667456865310669 -9.792646408081055 8.770347595214844 
400 2 -0.467587679624557 6.939527511596680 -8.004841804504395 
401 2 9.830723762512207 -4.594142436981201 3.702559471130371 
402 2 -11.005387306213379 -4.497176170349121 4.929846286773682 
403 2 -6.481310844421387 -4.979591846466064 -3.454960107803345 
404 2 3.657237529754639 -3.194168567657471 1.719924330711365 
405 2 -8.256402969360352 -4.955005168914795 0.582266926765442 
406 2 2.841936349868774 0.503741443157196 6.244563102722168 
407 2 5.747067928314209 -0.186941742897034 6.532950878143311 
408 2 -10.202243804931641 -6.632160663604736 0.495901107788086 
409 2 5.189015865325928 -5.824309825897217 1.156355977058411 
410 2 5.575873851776123 -4.140509128570557 -10.589429855346680 
411 2 1.160377264022827 -2.170331478118896 0.682542681694031 
412 2 -0.960491716861725 -9.959304809570312 2.352063417434692 
413 2 -4.929672718048096 7.593737125396729 -7.752893924713135 
414 2 -7.515860557556152 -1.441571950912476 -0.295247852802277 
415 2 3.880524396896362 -5.443560600280762 5.633896827697754 
416 2 9.635181427001953 -1.750540733337402 6.227028846740723 
417 2 8.348420143127441 -4.231512546539307 8.982351303100586 
418 2 -6.313473701477051 -10.893192291259766 -5.594045162200928 
419 2 -1.281462192535400 -0.768920123577118 10.419863700866699 
420 2 3.503020763397217 7.738017559051514 -7.607722282409668 
421 2 -10.649860382080078 0.765284121036530 6.713471889495850 
422 2 9.286317825317383 7.273310184478760 -4.247285366058350 
423 2 -2.110390901565552 4.440288066864014 6.228445053100586 
424 2 4.129379272460938 -9.677501678466797 1.301345109939575 
425 2 -0.095747955143452 -11.046701431274414 5.825421810150146 
426 2 -6.785439014434814 -0.574782252311707 3.512264966964722 
427 2 8.051795005798340 -2.077809333801270 -0.434281438589096 
428 2 -2.630829095840454 -1.604555606842041 -1.277192831039429 
429 2 3.884537220001221 2.767568826675415 -4.546835899353027 
430 2 1.653569698333740 -9.767941474914551 -8.776731491088867 
431 2 -5.274926662445068 8.570753097534180 9.912968635559082 
432 2 -11.080706596374512 -9.976728439331055 3.470041751861572 
433 2 -10.631082534790039 8.103860855102539 4.846849441528320 
434 2 6.116240978240967 -5.275650501251221 7.316050052642822 
435 2 -1.671312928199768 -6.390792369842529 4.993902206420898 
436 2 9.923393249511719 0.428410738706589 -2.966037988662720 
437 2 -11.100662231445312 -3.753895521163940 1.971229314804077 
438 2 -4.846758365631104 10.320605278015137 -8.512089729309082 
439 2 -3.346747875213623 -10.163951873779297 3.712185382843018 
440 2 -1.566508412361145 1.808853745460510 4.710818290710449 
441 2 -6.820787429809570 -10.885779380798340 -0.138251349329948 
442 2 1.576081871986389 8.535873413085938 11.377732276916504 
443 2 -0.616360783576965 -9.497690200805664 -7.725167274475098 
444 2 -6.866829872131348 4.602147579193115 0.759409904479980 
445 2 -6.965827465057373 1.476887702941895 -6.426794528961182 
446 2 7.420768737792969 1.383642911911011 4.043829917907715 
447 2 -6.680579662322998 0.666317045688629 9.123703002929688 
448 2 0.198677822947502 3.646495103836060 4.001959800720215 
449 2 9.412690162658691 5.868371486663818 -6.759222507476807 
450 2 11.594157218933105 -6.564208030700684 3.605290174484253 
451 2 0.694453597068787 1.919911623001099 6.022490501403809 
452 2 2.752329349517822 -1.598016858100891 4.331906795501709 
453 2 2.638108491897583 -1.763088941574097 -1.539762377738953 
454 2 -4.627206802368164 3.194418907165527 1.940061330795288 
455 2 10.135210037231445 0.715737223625183 5.886397838592529 
456 2 -6.414653301239014 11.069412231445312 7.120637893676758 
457 2 4.069105148315430 8.106071472167969 -10.515697479248047 
458 2 -3.194694280624390 0.310003012418747 9.314582824707031 
459 2 6.078286647796631 5.264551639556885 9.487192153930664 
460 2 -1.837298989295959 -5.663270473480225 7.519821643829346 
461 2 6.911535739898682 8.363228797912598 -10.328304290771484 
462 2 11.240450859069824 5.838274478912354 7.863071441650391 
463 2 -1.216843962669373 6.267611026763916 4.148084163665771 
464 2 0.433123916387558 -1.659866094589233 6.310212612152100 
465 2 5.466617584228516 2.000809431076050 -2.582489967346191 
466 2 9.774112701416016 -4.550245761871338 6.284295082092285 
467 2 -4.757473468780518 4.669748783111572 10.555033683776855 
468 2 9.604050636291504 -10.658711433410645 -10.703451156616211 
469 2 -8.816114425659180 -9.262524604797363 4.860286235809326 
470 2 -8.841876983642578 -8.963658332824707 0.059596408158541 
471 2 2.425943374633789 -7.306844234466553 5.319020748138428 
472 2 0.343639791011810 0.588410258293152 -10.280577659606934 
473 2 6.710265636444092 -7.377290725708008 -5.264863014221191 
474 2 -2.509408473968506 -6.835876464843750 -9.803729057312012 
475 2 -0.884864568710327 9.882711410522461 -0.702674329280853 