ITEM: TIMESTEP
0
ITEM: NUMBER OF ATOMS
1008
ITEM: BOX BOUNDS xy xz yz pp pp pp
0.0 23.3006801605 0.0
0.0 23.3006801605 0.0
0.0 23.3006801605 0.0
ITEM: ATOMS id type x y z
1 1 3.765449285507202 -6.852113246917725 -7.654137611389160 
2 1 0.108130551874638 6.229142189025879 -1.437406420707703 
3 1 -10.977923393249512 5.593957901000977 -3.349716901779175 
4 1 -1.304508924484253 3.122666835784912 -1.399584293365479 
5 1 5.910212039947510 -11.606907844543457 -11.545128822326660 
6 1 0.018174415454268 -2.459126710891724 10.405014038085938 
7 1 8.096350669860840 0.199238851666451 -3.368445396423340 
8 1 -4.129602432250977 -1.182276487350464 -4.647906303405762 
9 1 -9.718137741088867 10.329457283020020 -1.617990612983704 
10 1 5.283720016479492 -0.258351862430573 -9.555376052856445 
11 1 9.648780822753906 2.107204437255859 6.973119735717773 
12 1 9.068326950073242 -2.768739938735962 4.450814723968506 
13 1 0.842347264289856 3.366127490997314 9.672426223754883 
14 1 -6.760000228881836 4.472581386566162 -1.355652093887329 
15 1 -5.393232345581055 -3.805805683135986 5.526450157165527 
16 1 2.967350244522095 -9.010950088500977 4.438509464263916 
17 1 -10.297399520874023 3.597373485565186 5.754620075225830 
18 1 -9.551358222961426 2.266462564468384 -2.372071027755737 
19 1 -0.730638504028320 -1.452505946159363 5.093501567840576 
20 1 -10.248351097106934 -2.598121881484985 8.247632980346680 
21 1 10.836250305175781 -5.647624969482422 5.237321853637695 
22 1 -0.054727561771870 -7.240724086761475 -3.342508077621460 
23 1 -5.864767551422119 -7.064473628997803 7.388984203338623 
24 1 7.672366142272949 4.592605590820312 9.126543998718262 
25 1 7.254579544067383 -2.654879570007324 9.258829116821289 
26 1 -5.636047840118408 6.580555915832520 7.040184497833252 
27 1 8.137339591979980 -10.810420036315918 2.385856151580811 
28 1 0.236749574542046 10.440955162048340 5.687504768371582 
29 1 -3.065282106399536 -10.989141464233398 -4.547874927520752 
30 1 -6.073061943054199 2.935050487518311 -7.580479145050049 
31 1 -1.425092339515686 5.105607986450195 -7.524019718170166 
32 1 -11.530811309814453 6.844000339508057 6.373406887054443 
33 1 4.618410110473633 6.131208419799805 1.190737605094910 
34 1 2.159551620483398 3.472474575042725 -0.052577096968889 
35 1 0.493182897567749 -1.602364420890808 -5.448584079742432 
36 1 -10.584958076477051 -11.310787200927734 10.176629066467285 
37 1 11.558242797851562 -0.602557599544525 5.461912155151367 
38 1 -4.711006164550781 1.399913430213928 -1.483992934226990 
39 1 4.756751060485840 -3.898036956787109 -5.996438503265381 
40 1 -7.236349105834961 -4.671381473541260 2.473865985870361 
41 1 -3.410177707672119 -7.105992317199707 -5.139368057250977 
42 1 3.108157157897949 -10.307391166687012 -10.027933120727539 
43 1 -8.518136024475098 5.397189617156982 -9.127192497253418 
44 1 -2.292181015014648 -9.117849349975586 -1.573940157890320 
45 1 -8.434355735778809 10.802976608276367 7.640130043029785 
46 1 0.593686401844025 9.277102470397949 9.373598098754883 
47 1 7.314915180206299 -9.024365425109863 -4.431317806243896 
48 1 4.903437614440918 -8.937510490417480 8.822072982788086 
49 1 3.605235338211060 11.473843574523926 -5.793027877807617 
50 1 -10.812862396240234 -5.591940879821777 2.219082355499268 
51 1 -6.050467014312744 10.164222717285156 5.479912757873535 
52 1 -10.993329048156738 -0.543188393115997 -0.952839314937592 
53 1 -2.020481824874878 1.019217252731323 1.041020989418030 
54 1 -1.523036718368530 -0.703566074371338 -2.147255897521973 
55 1 3.641602516174316 -4.179150104522705 9.980039596557617 
56 1 2.903578519821167 8.277281761169434 -4.235340118408203 
57 1 6.784025192260742 -5.778728961944580 -10.483714103698730 
58 1 3.800655841827393 5.541049957275391 -1.972694516181946 
59 1 3.750130653381348 9.410805702209473 -9.049920082092285 
60 1 0.591793119907379 5.346277236938477 2.830011129379272 
61 1 2.455729722976685 0.967527449131012 -7.260821342468262 
62 1 8.521816253662109 7.641335487365723 -6.059624195098877 
63 1 -1.828237295150757 -5.602063655853271 -0.242651194334030 
64 1 -4.974781036376953 -6.846467494964600 1.130120992660522 
65 1 8.823909759521484 6.209501266479492 -2.728472948074341 
66 1 0.234391808509827 -3.541761159896851 -8.761343002319336 
67 1 5.396227359771729 -3.746411561965942 1.797625660896301 
68 1 9.247172355651855 7.252793312072754 11.273736953735352 
69 1 -11.489365577697754 -9.645642280578613 -2.337249517440796 
70 1 -6.863483428955078 -3.022223711013794 -6.465445995330811 
71 1 -1.102597475051880 9.595414161682129 -6.175287723541260 
72 1 3.790343761444092 1.122982978820801 2.513248205184937 
73 1 -7.496839523315430 0.453363418579102 -5.055222511291504 
74 1 -3.467966794967651 4.556990146636963 -10.387434959411621 
75 1 -10.588306427001953 -6.049405097961426 10.928297996520996 
76 1 3.567699193954468 10.637057304382324 3.648450613021851 
77 1 3.221036434173584 10.210534095764160 -1.581990122795105 
78 1 10.771598815917969 11.248985290527344 0.205654636025429 
79 1 3.937500953674316 -9.691337585449219 -2.979164123535156 
80 1 10.075839042663574 0.627185761928558 -9.834138870239258 
81 1 -9.789440155029297 0.748151004314423 8.347113609313965 
82 1 1.691447496414185 -6.407814025878906 0.128398180007935 
83 1 -2.588699340820312 9.622838973999023 0.305447787046432 
84 1 1.910635232925415 -0.695764720439911 -10.304341316223145 
85 1 -7.754554271697998 -3.124430656433105 10.869543075561523 
86 1 -8.560299873352051 9.482765197753906 1.853747963905334 
87 1 7.657491207122803 8.218671798706055 8.173860549926758 
88 1 -2.772366523742676 1.757715702056885 -6.532967567443848 
89 1 -2.875799655914307 5.251745223999023 4.743276119232178 
90 1 9.577488899230957 -4.247479438781738 -8.441669464111328 
91 1 3.268077850341797 11.639447212219238 6.934555053710938 
92 1 3.648452758789062 1.731011629104614 -3.118047714233398 
93 1 -7.152649879455566 8.140111923217773 10.137547492980957 
94 1 -8.531167984008789 7.597062587738037 5.058962345123291 
95 1 -8.915999412536621 10.255326271057129 -10.420183181762695 
96 1 5.666528701782227 4.861981391906738 -9.838871002197266 
97 1 -2.202621936798096 -9.388190269470215 9.879389762878418 
98 1 10.506634712219238 -7.409875392913818 -0.015777559950948 
99 1 0.214012563228607 -7.108770847320557 9.962001800537109 
100 1 -7.065555095672607 8.137674331665039 -2.089496135711670 
101 1 4.131628513336182 -0.989837765693665 5.594611644744873 
102 1 6.946242809295654 1.559825778007507 11.090737342834473 
103 1 0.414876222610474 -9.806659698486328 7.339328289031982 
104 1 -10.167274475097656 0.723099291324615 -11.454310417175293 
105 1 7.264412403106689 11.249112129211426 -5.687075614929199 
106 1 -9.614728927612305 -1.843649506568909 -4.248250007629395 
107 1 -5.144785881042480 -4.937649250030518 10.193756103515625 
108 1 -1.609844446182251 6.216117858886719 -4.448405742645264 
109 1 -10.636281013488770 8.051547050476074 -8.107973098754883 
110 1 -1.258822441101074 6.451169967651367 10.604710578918457 
111 1 -1.787429451942444 7.734040737152100 -9.401481628417969 
112 1 7.511737346649170 -7.525527000427246 3.935765027999878 
113 1 11.240386009216309 0.600524008274078 -4.727191925048828 
114 1 11.368188858032227 9.068799972534180 -4.476622581481934 
115 1 6.805019855499268 3.645573616027832 -3.203808307647705 
116 1 -8.009109497070312 -7.787250041961670 4.324759483337402 
117 1 -2.316303253173828 -3.659020423889160 7.696714878082275 
118 1 -3.001038074493408 8.867913246154785 6.234500408172607 
119 1 3.492199659347534 -6.999378681182861 -11.519121170043945 
120 1 11.071932792663574 9.622554779052734 8.702311515808105 
121 1 9.826314926147461 4.096590518951416 -5.519083499908447 
122 1 -6.611970901489258 11.409165382385254 -3.950152873992920 
123 1 11.623146057128906 3.990935564041138 8.887923240661621 
124 1 7.545441627502441 -11.452302932739258 8.654063224792480 
125 1 -7.010902404785156 0.557663619518280 11.015984535217285 
126 1 -9.773630142211914 1.473477721214294 2.967040061950684 
127 1 -10.776059150695801 2.759798526763916 -7.693637371063232 
128 1 -3.107860326766968 0.120847240090370 7.541596889495850 
129 1 2.681234598159790 -6.219245433807373 7.095440387725830 
130 1 -3.889596939086914 -4.373545169830322 -7.714139938354492 
131 1 -3.622669219970703 6.474760055541992 -1.490299224853516 
132 1 4.828482151031494 -7.701475620269775 1.327453494071960 
133 1 -5.505554676055908 7.556910514831543 -9.736243247985840 
134 1 -7.974523544311523 0.337060540914536 -8.625472068786621 
135 1 7.275147438049316 9.561081886291504 -8.943294525146484 
136 1 -8.363039016723633 -8.781064987182617 8.987048149108887 
137 1 -1.609197258949280 -4.005445957183838 -3.630178689956665 
138 1 -7.225439071655273 -0.832975685596466 1.503117918968201 
139 1 -5.263238906860352 -10.713294029235840 8.223619461059570 
140 1 -4.204325199127197 3.678596973419189 -3.699853181838989 
141 1 8.447683334350586 -9.043876647949219 -10.607483863830566 
142 1 1.525338172912598 8.419800758361816 1.237493753433228 
143 1 0.337536633014679 1.848243355751038 3.906911611557007 
144 1 8.739467620849609 11.039094924926758 -2.424685239791870 
145 1 7.283397197723389 -9.183110237121582 -0.838618278503418 
146 1 -11.493585586547852 -2.641021251678467 -11.060832977294922 
147 1 -1.848750352859497 1.139504551887512 10.477194786071777 
148 1 5.754467010498047 0.941614747047424 -0.602435946464539 
149 1 -4.866670608520508 -5.029035568237305 -2.275129556655884 
150 1 6.521526336669922 -2.449792385101318 -1.542783856391907 
151 1 9.534749031066895 10.889763832092285 -11.425378799438477 
152 1 0.963428854942322 -2.936162233352661 -1.003327727317810 
153 1 -1.193172216415405 -2.677236318588257 1.951248049736023 
154 1 5.145450115203857 7.068467140197754 -6.889828681945801 
155 1 9.357437133789062 -1.653545141220093 0.761856555938721 
156 1 -6.415805339813232 2.879906654357910 1.645040512084961 
157 1 5.870732307434082 1.880880713462830 7.420131206512451 
158 1 10.067616462707520 -0.345276415348053 9.834435462951660 
159 1 -7.629151821136475 6.011633396148682 1.931066393852234 
160 1 -3.659501075744629 4.368623733520508 9.378181457519531 
161 1 -6.630467891693115 0.674726128578186 4.802627086639404 
162 1 -3.598090887069702 9.379553794860840 9.717456817626953 
163 1 11.516948699951172 -7.279430389404297 -9.139465332031250 
164 1 -2.043926954269409 -4.994442462921143 -11.108232498168945 
165 1 7.681780338287354 4.120052814483643 0.238352090120316 
166 1 -7.489819049835205 10.605967521667480 -7.082045555114746 
167 1 -5.646111011505127 -8.508635520935059 -2.930121898651123 
168 1 8.089560508728027 -2.428643703460693 -10.354255676269531 
169 1 0.922709941864014 -9.007037162780762 -6.747428417205811 
170 1 -0.348692715167999 9.726544380187988 -2.523782253265381 
171 1 6.925304412841797 -5.828232288360596 9.040544509887695 
172 1 -8.470379829406738 7.342434406280518 -5.571434020996094 
173 1 3.414793968200684 -2.128962278366089 -3.221181392669678 
174 1 3.040914535522461 -5.714735031127930 3.694461107254028 
175 1 -11.316633224487305 -9.320898056030273 6.979403972625732 
176 1 -4.990799427032471 6.106758594512939 -6.247916698455811 
177 1 8.956310272216797 -4.941198825836182 1.779452919960022 
178 1 4.923220634460449 4.029693603515625 4.400697231292725 
179 1 5.995589256286621 -9.965935707092285 -7.938229560852051 
180 1 -10.849760055541992 4.393337249755859 -11.203955650329590 
181 1 -10.933747291564941 -1.888765573501587 -7.825985908508301 
182 1 2.303337097167969 -9.842487335205078 0.172104284167290 
183 1 3.956095933914185 8.193978309631348 8.012887954711914 
184 1 -3.797198057174683 -8.403974533081055 -10.301663398742676 
185 1 -7.285727500915527 -7.100790500640869 -10.954887390136719 
186 1 0.336796134710312 1.606874585151672 -4.409539699554443 
187 1 -5.259238719940186 -1.968374609947205 -10.031807899475098 
188 1 9.342300415039062 8.316519737243652 0.300984978675842 
189 1 9.930397987365723 5.429114341735840 -8.575416564941406 
190 1 2.379904508590698 -10.588845252990723 10.141381263732910 
191 1 -6.672905445098877 4.392946243286133 11.205628395080566 
192 1 10.487128257751465 10.714047431945801 -7.320910930633545 
193 1 -0.280617654323578 11.533041000366211 2.022925615310669 
194 1 2.128979682922363 7.225327968597412 -11.139805793762207 
195 1 -8.962921142578125 -8.328680992126465 -4.354968547821045 
196 1 5.837161064147949 -4.484939098358154 5.574892044067383 
197 1 -8.459574699401855 -4.835068702697754 -3.375882863998413 
198 1 7.621129512786865 2.323603153228760 -7.956485748291016 
199 1 8.957188606262207 -1.119885921478271 -6.753271579742432 
200 1 10.824768066406250 -3.984017133712769 -1.297801971435547 
201 1 -9.763874053955078 -11.090780258178711 4.459101676940918 
202 1 3.851165294647217 -3.800316810607910 -9.706444740295410 
203 1 8.376394271850586 3.050255537033081 3.707598209381104 
204 1 -8.368207931518555 -7.032211780548096 -0.249015465378761 
205 1 -6.683319091796875 2.715859413146973 7.978903293609619 
206 1 10.369122505187988 5.750380039215088 2.147943258285522 
207 1 -6.470072269439697 -6.490677833557129 -7.427295207977295 
208 1 -2.356742382049561 -10.589674949645996 -8.118726730346680 
209 1 -0.039711296558380 -8.136243820190430 2.605151653289795 
210 1 5.450860023498535 -0.281099110841751 -5.904356479644775 
211 1 5.653820514678955 8.022791862487793 11.369421005249023 
212 1 -4.091411590576172 -1.115248441696167 3.195117473602295 
213 1 2.710628271102905 6.032813549041748 5.870562076568604 
214 1 6.192422866821289 -10.348421096801758 5.500927448272705 
215 1 -1.651672124862671 10.848119735717773 -11.233522415161133 
216 1 6.643473148345947 9.125933647155762 2.044212579727173 
217 1 -2.215518474578857 -1.107696175575256 -7.922678947448730 
218 1 4.920967578887939 3.385110855102539 -6.277918815612793 
219 1 7.059501171112061 -6.251890182495117 -6.740783214569092 
220 1 -6.540050029754639 -1.127322673797607 7.860018253326416 
221 1 -1.050786614418030 8.017743110656738 3.367154359817505 
222 1 -1.967910289764404 -7.277693271636963 6.802076816558838 
223 2 -5.194699287414551 -1.441590428352356 1.377913475036621 
224 2 -9.113917350769043 8.481323242187500 -1.492560148239136 
225 2 10.322463989257812 9.597742080688477 4.725704193115234 
226 2 6.443504810333252 2.710334062576294 -0.348732501268387 
227 2 -4.197556972503662 -8.551768302917480 1.023373365402222 
228 2 9.264266014099121 -2.707020998001099 -5.437470912933350 
229 2 9.179533004760742 -8.806160926818848 -5.211086750030518 
230 2 -8.202119827270508 7.723026752471924 1.000356078147888 
231 2 -6.129267215728760 9.595702171325684 -3.350734949111938 
232 2 10.924128532409668 11.024313926696777 10.208278656005859 
233 2 -5.909701824188232 2.759329557418823 -0.621725201606750 
234 2 6.662978172302246 -10.747711181640625 3.707512855529785 
235 2 7.334100723266602 -4.293038845062256 -2.217564582824707 
236 2 10.688950538635254 -5.913516521453857 -1.296777248382568 
237 2 9.151777267456055 10.239617347717285 -8.596781730651855 
238 2 -5.094934463500977 -10.414265632629395 -10.887240409851074 
239 2 10.996181488037109 -3.513038396835327 -7.317181587219238 
240 2 -3.579603195190430 7.976182460784912 -9.960783004760742 
241 2 7.378036022186279 7.702576637268066 10.276797294616699 
242 2 6.057273864746094 3.658930301666260 -8.066702842712402 
243 2 -9.595817565917969 -11.208531379699707 -9.684556961059570 
244 2 -2.783759117126465 8.440549850463867 4.277466773986816 
245 2 -1.234403610229492 9.405904769897461 -10.095630645751953 
246 2 4.367429256439209 -10.584468841552734 -7.006550788879395 
247 2 6.396831989288330 -5.821983337402344 -8.529948234558105 
248 2 9.307640075683594 10.084663391113281 -0.665329575538635 
249 2 -6.355412006378174 -8.985078811645508 8.141996383666992 
250 2 -6.827042579650879 -11.004216194152832 -7.967195987701416 
251 2 -3.844193696975708 10.736021041870117 -0.750589787960052 
252 2 -11.444505691528320 -9.993138313293457 11.419731140136719 
253 2 2.057508230209351 4.212661743164062 8.288053512573242 
254 2 -9.393174171447754 1.661602139472961 -8.453368186950684 
255 2 -11.425219535827637 7.517011642456055 -3.547656536102295 
256 2 -6.988422870635986 10.488555908203125 1.859364867210388 
257 2 10.904871940612793 0.738831818103790 -0.650495767593384 
258 2 10.508710861206055 2.716055870056152 -4.237717151641846 
259 2 11.579441070556641 8.500811576843262 7.270046710968018 
260 2 11.210816383361816 10.937030792236328 -10.410335540771484 
261 2 4.476493358612061 -3.553847551345825 -7.851201534271240 
262 2 4.587000370025635 5.130755424499512 2.807705879211426 
263 2 -0.423946291208267 -8.613574981689453 -2.034730195999146 
264 2 -3.794997453689575 -5.301578044891357 11.493688583374023 
265 2 -3.724926471710205 0.888333022594452 0.038717705756426 
266 2 -3.816226005554199 -3.573815345764160 6.627436161041260 
267 2 -2.216503143310547 -10.544826507568359 -2.862618446350098 
268 2 -4.588642597198486 7.982670307159424 -5.329642295837402 
269 2 9.368249893188477 7.415674686431885 -1.359097957611084 
270 2 -9.817804336547852 10.758653640747070 11.322409629821777 
271 2 -7.876334667205811 -8.954676628112793 -10.209051132202148 
272 2 3.256276369094849 -4.624616146087646 -11.447368621826172 
273 2 -8.732317924499512 -6.009365558624268 -1.836525440216064 
274 2 10.178074836730957 -3.186788082122803 -10.115633964538574 
275 2 -9.027693748474121 -0.161440685391426 2.056545734405518 
276 2 5.495124816894531 -0.957970201969147 -0.876874208450317 
277 2 7.876739978790283 4.612818717956543 -1.691275000572205 
278 2 -3.225596427917480 -0.190925195813179 -6.164160251617432 
279 2 7.223876476287842 8.503651618957520 0.101623736321926 
280 2 -4.819677352905273 -11.160815238952637 1.711377143859863 
281 2 2.492453813552856 -9.561491966247559 -1.671376943588257 
282 2 -10.281167984008789 -3.752805709838867 -3.808333873748779 
283 2 -9.775022506713867 -8.248407363891602 7.585227489471436 
284 2 -8.367383003234863 1.286029815673828 4.239698410034180 
285 2 8.962000846862793 2.044510841369629 -10.557716369628906 
286 2 7.714157581329346 -2.595400810241699 11.135354042053223 
287 2 -2.239452838897705 -1.542982816696167 3.758955240249634 
288 2 9.338970184326172 2.807653188705444 -0.190475195646286 
289 2 -6.715457439422607 6.354696750640869 10.950469017028809 
290 2 -7.608008861541748 9.043113708496094 6.217068672180176 
291 2 11.221893310546875 6.850594043731689 -8.410536766052246 
292 2 2.037188529968262 6.128857135772705 -1.469454765319824 
293 2 -7.961089611053467 -3.452857971191406 -4.819733619689941 
294 2 -3.222192049026489 0.723660469055176 2.620041131973267 
295 2 -10.388451576232910 -6.071262359619141 -8.418987274169922 
296 2 -4.195909023284912 6.218858242034912 5.767427444458008 
297 2 3.585323810577393 -5.847457408905029 -9.253664970397949 
298 2 -1.136235475540161 11.181500434875488 -7.568340301513672 
299 2 -8.757164955139160 -10.230684280395508 -4.205154895782471 
300 2 -1.918934583663940 7.263702392578125 6.454286098480225 
301 2 1.263488769531250 -11.035354614257812 -6.435104370117188 
302 2 -8.262648582458496 1.859630346298218 -3.843765974044800 
303 2 -7.351034641265869 -6.060529232025146 -9.252348899841309 
304 2 -6.700740814208984 -3.935389280319214 9.512233734130859 
305 2 -1.883527874946594 0.893588602542877 -8.269044876098633 
306 2 -1.998580217361450 -9.971707344055176 0.052949279546738 
307 2 -2.565109014511108 3.737257957458496 3.420073747634888 
308 2 2.667401075363159 -0.347800165414810 1.579921364784241 
309 2 2.149461030960083 -3.729275941848755 -2.568397998809814 
310 2 -9.288021087646484 -3.963748455047607 7.082907676696777 
311 2 7.604680538177490 -11.498319625854492 6.368408679962158 
312 2 -5.100289344787598 -2.344839334487915 -5.994120121002197 
313 2 5.851899623870850 7.993508815765381 7.165788650512695 
314 2 1.330587148666382 -6.146681308746338 -4.253330707550049 
315 2 3.911116361618042 4.072922706604004 -9.841807365417480 
316 2 0.002932990435511 8.783286094665527 4.724311828613281 
317 2 1.034060120582581 -11.010494232177734 0.976197957992554 
318 2 -8.056818008422852 -3.520769596099854 -7.846855640411377 
319 2 6.032577514648438 -10.774367332458496 9.756743431091309 
320 2 -11.119574546813965 -11.080078125000000 0.888016402721405 
321 2 -3.373750925064087 -4.683547019958496 -3.430980682373047 
322 2 1.625288367271423 7.414238929748535 -5.467650413513184 
323 2 -8.460591316223145 2.018333673477173 7.762062549591064 
324 2 10.194682121276855 -8.690671920776367 -9.344960212707520 
325 2 -4.640889644622803 -10.181866645812988 6.347254753112793 
326 2 11.373023986816406 -0.892584919929504 -9.427268028259277 
327 2 -10.669754981994629 -4.013354778289795 -0.863965928554535 
328 2 -2.024594783782959 3.033581495285034 0.412991732358932 
329 2 8.385327339172363 11.396643638610840 10.349524497985840 
330 2 7.149640083312988 10.030979156494141 8.469909667968750 
331 2 9.866864204406738 6.546873569488525 5.865320682525635 
332 2 -7.084039688110352 -3.926160097122192 4.329613685607910 
333 2 -2.490454435348511 -7.735972404479980 -6.734800815582275 
334 2 -6.452584743499756 1.601097822189331 -9.068050384521484 
335 2 3.059181690216064 6.173873424530029 -3.738444089889526 
336 2 5.868975162506104 -3.651756763458252 -0.145667597651482 
337 2 7.811856746673584 -10.943007469177246 -1.379846692085266 
338 2 -1.034731388092041 -5.977476119995117 10.815595626831055 
339 2 -9.579788208007812 0.815233886241913 -1.079467654228210 
340 2 -9.049681663513184 -6.284834861755371 -4.473976612091064 
341 2 7.264600753784180 9.856307983398438 -2.609092712402344 
342 2 7.926388740539551 3.123924255371094 10.399156570434570 
343 2 -11.105081558227539 5.281550884246826 5.343381881713867 
344 2 8.168889999389648 8.033233642578125 -7.951294898986816 
345 2 -4.936654567718506 4.548983573913574 -7.409493446350098 
346 2 -11.175148963928223 3.044150352478027 -1.236357927322388 
347 2 5.017589569091797 -2.707972049713135 5.402313709259033 
348 2 10.482796669006348 5.056943416595459 -2.479761838912964 
349 2 4.788567066192627 7.858998775482178 9.682323455810547 
350 2 9.532452583312988 -10.913433074951172 1.086387395858765 
351 2 -5.176012039184570 -7.529321670532227 -6.178417682647705 
352 2 5.261664390563965 2.494235277175903 11.616932868957520 
353 2 -6.512956619262695 11.580727577209473 4.319847106933594 
354 2 1.161677479743958 -4.841050624847412 6.378319740295410 
355 2 3.587295055389404 -10.552444458007812 8.610217094421387 
356 2 2.430923223495483 -5.863724708557129 1.823673963546753 
357 2 3.714735031127930 -2.349863767623901 10.352925300598145 
358 2 2.049728631973267 -1.834473967552185 -4.459690093994141 
359 2 -4.184751510620117 -9.058744430541992 -1.885012745857239 
360 2 9.887507438659668 2.162463426589966 2.977406978607178 
361 2 -11.568402290344238 -5.919571399688721 7.061634540557861 
362 2 3.239834308624268 -11.556216239929199 -0.206045001745224 
363 2 8.765789031982422 -2.389858007431030 -8.226142883300781 
364 2 -8.565303802490234 -3.712871074676514 -10.883515357971191 
365 2 -9.409041404724121 6.794445514678955 6.777476310729980 
366 2 -4.510128974914551 11.308145523071289 -3.868767499923706 
367 2 -7.953718185424805 4.466702938079834 -10.776530265808105 
368 2 -0.944473028182983 -5.472876071929932 -2.154040575027466 
369 2 0.210664480924606 -7.675814151763916 -9.357249259948730 
370 2 -2.396897077560425 8.712044715881348 -7.667645454406738 
371 2 -8.289967536926270 -6.064429283142090 -6.883782386779785 
372 2 -4.388717651367188 -7.327003955841064 3.309699535369873 
373 2 -2.632029533386230 -1.767584800720215 8.256527900695801 
374 2 11.227792739868164 5.240277767181396 -4.915413856506348 
375 2 -1.537267923355103 -3.369495630264282 11.078627586364746 
376 2 -0.258231103420258 -6.444577693939209 0.590414226055145 
377 2 4.683608055114746 -2.049670934677124 -5.423764228820801 
378 2 10.210876464843750 -3.744194746017456 -3.108675003051758 
379 2 6.855152130126953 -9.930017471313477 -11.234470367431641 
380 2 -11.503134727478027 -8.152525901794434 5.501673698425293 
381 2 -6.860506057739258 4.496958732604980 3.016861915588379 
382 2 10.526371002197266 9.748790740966797 1.551373720169067 
383 2 -5.692274093627930 -0.152104988694191 -1.635510802268982 
384 2 -0.540640056133270 -8.645708084106445 11.004466056823730 
385 2 -10.222713470458984 8.570140838623047 -9.966655731201172 
386 2 -7.311727523803711 4.429171562194824 -3.149963140487671 
387 2 -4.938315391540527 3.096265792846680 8.591070175170898 
388 2 7.064495086669922 6.996800899505615 -2.654486656188965 
389 2 -7.875792503356934 7.783993721008301 -3.814870357513428 
390 2 4.047636985778809 10.136132240295410 7.735481262207031 
391 2 -11.193696022033691 -0.612628519535065 9.040978431701660 
392 2 1.900128841400146 5.400678157806396 -7.060632705688477 
393 2 -7.512884616851807 -1.268005609512329 -6.189987659454346 
394 2 4.797895908355713 -0.046874415129423 3.856182813644409 
395 2 -1.017671942710876 5.319726943969727 1.630790948867798 
396 2 10.927694320678711 -1.907104015350342 4.061123371124268 
397 2 -6.619645595550537 3.215875148773193 -5.748224735260010 
398 2 -0.834498226642609 -1.102281332015991 -6.611921787261963 
399 2 -3.758265495300293 -9.622111320495605 8.832795143127441 
400 2 -0.524994909763336 6.917349815368652 -8.087855339050293 
401 2 9.816595077514648 -4.492333889007568 3.651011943817139 
402 2 -11.017948150634766 -4.496436595916748 4.896341800689697 
403 2 -6.529199123382568 -5.099246025085449 -3.177788972854614 
404 2 3.603204250335693 -3.116995811462402 1.641733407974243 
405 2 -8.082283973693848 -5.008387088775635 0.557828009128571 
406 2 3.002259254455566 0.680916965007782 6.213027000427246 
407 2 5.674798488616943 -0.073323890566826 6.586993694305420 
408 2 -10.125452995300293 -6.563189029693604 0.690022468566895 
409 2 5.158501148223877 -5.785342216491699 1.081596136093140 
410 2 5.556139945983887 -4.168884277343750 -10.539746284484863 
411 2 0.819388270378113 -2.368519544601440 0.987005949020386 
412 2 -0.953685522079468 -9.956788063049316 2.447836160659790 
413 2 -5.025279998779297 7.351314067840576 -7.773315429687500 
414 2 -7.609319210052490 -1.509468436241150 -0.293407559394836 
415 2 3.924298763275146 -5.325969219207764 5.700794219970703 
416 2 9.563910484313965 -1.723480463027954 6.081877231597900 
417 2 8.360393524169922 -4.252990722656250 9.021607398986816 
418 2 -6.318683624267578 -10.534249305725098 -5.357794761657715 
419 2 -1.297464847564697 -0.828667759895325 10.488310813903809 
420 2 3.457124471664429 7.706960201263428 -7.886668205261230 
421 2 -10.551132202148438 0.686441421508789 6.580494403839111 
422 2 9.244651794433594 7.315100193023682 -4.280046939849854 
423 2 -1.869200229644775 4.475521087646484 6.194728374481201 
424 2 4.087869644165039 -9.612895965576172 1.170091867446899 
425 2 -0.386365920305252 -10.923218727111816 6.023353576660156 
426 2 -6.589020252227783 -0.576784312725067 3.317218303680420 
427 2 8.014171600341797 -2.046992063522339 -0.444693237543106 
428 2 -2.822972774505615 -1.662695050239563 -1.087775826454163 
429 2 3.911200284957886 2.919385194778442 -4.621563911437988 
430 2 1.548581838607788 -10.103031158447266 -8.786927223205566 
431 2 -5.331850051879883 8.630914688110352 9.662626266479492 
432 2 -11.195798873901367 -10.018407821655273 3.528672933578491 
433 2 -10.539259910583496 8.015508651733398 4.881977558135986 
434 2 6.157281875610352 -5.332721233367920 7.327042579650879 
435 2 -1.655081391334534 -6.199801921844482 5.158200263977051 
436 2 9.953586578369141 0.435626775026321 -2.971175909042358 
437 2 -11.070691108703613 -3.693110704421997 1.954446434974670 
438 2 -5.354571342468262 9.751531600952148 -8.714855194091797 
439 2 -3.454075098037720 -10.137025833129883 3.905833482742310 
440 2 -1.490043520927429 1.882784843444824 4.799952507019043 
441 2 -6.898791313171387 -10.856514930725098 0.133712962269783 
442 2 1.108779668807983 8.337147712707520 11.091341018676758 
443 2 -0.752331137657166 -9.519838333129883 -7.654408454895020 
444 2 -6.859264850616455 4.675028324127197 0.603962779045105 
445 2 -7.351547718048096 1.133668780326843 -6.860435485839844 
446 2 7.428284645080566 1.439538121223450 3.911252260208130 
447 2 -6.622551441192627 0.799895048141479 9.025610923767090 
448 2 0.345683932304382 3.738581895828247 3.730267286300659 
449 2 9.231900215148926 5.830077648162842 -6.749552249908447 
450 2 11.520850181579590 -6.521725654602051 3.606497526168823 
451 2 0.746650934219360 2.287118673324585 5.963272094726562 
452 2 2.759375095367432 -1.522304296493530 4.365344047546387 
453 2 2.589640140533447 -1.659597992897034 -1.395600676536560 
454 2 -4.562580108642578 3.335918426513672 1.654678702354431 
455 2 10.222716331481934 0.739102363586426 5.761254310607910 
456 2 -6.471839904785156 11.226828575134277 7.200903892517090 
457 2 3.861717700958252 8.265126228332520 -10.788535118103027 
458 2 -3.427997827529907 0.279456317424774 9.555304527282715 
459 2 5.860399723052979 4.929792404174805 9.563867568969727 
460 2 -2.020704746246338 -5.528622150421143 7.631220340728760 
461 2 6.850413799285889 8.360309600830078 -10.430833816528320 
462 2 11.426586151123047 5.789807319641113 8.083049774169922 
463 2 -1.155341625213623 6.170417785644531 4.086698055267334 
464 2 0.575410902500153 -1.454945325851440 6.599708080291748 
465 2 5.515265941619873 2.114256858825684 -2.646621227264404 
466 2 9.751099586486816 -4.546157836914062 6.322554111480713 
467 2 -4.824877738952637 4.314376354217529 10.907588958740234 
468 2 9.535908699035645 -10.654914855957031 -10.683835983276367 
469 2 -8.894110679626465 -9.407297134399414 5.072611808776855 
470 2 -8.939611434936523 -8.928003311157227 0.173894196748734 
471 2 2.515718936920166 -7.177059650421143 5.286389350891113 
472 2 0.400147080421448 0.469865351915359 -10.239357948303223 
473 2 6.747057437896729 -7.372817516326904 -5.203185558319092 
474 2 -2.444970607757568 -6.932951927185059 -9.831973075866699 
475 2 -0.968319296836853 10.080719947814941 -0.705580294132233 