ITEM: TIMESTEP
0
ITEM: NUMBER OF ATOMS
1008
ITEM: BOX BOUNDS xy xz yz pp pp pp
0.0 23.3006801605 0.0
0.0 23.3006801605 0.0
0.0 23.3006801605 0.0
ITEM: ATOMS id type x y z
1 1 3.714478969573975 -6.883328914642334 -7.646014213562012 
2 1 0.103640437126160 6.177889823913574 -1.443235635757446 
3 1 -11.000840187072754 5.602797985076904 -3.364870071411133 
4 1 -1.354509234428406 3.127369403839111 -1.437883615493774 
5 1 5.877946376800537 -11.586133956909180 -11.514982223510742 
6 1 0.042947683483362 -2.409772396087646 10.370227813720703 
7 1 8.105535507202148 0.190248012542725 -3.384519577026367 
8 1 -4.112585544586182 -1.180820107460022 -4.690066337585449 
9 1 -9.733325958251953 10.336041450500488 -1.659439802169800 
10 1 5.288331508636475 -0.257774293422699 -9.566129684448242 
11 1 9.650029182434082 2.109048843383789 6.954092025756836 
12 1 9.077280998229980 -2.752180337905884 4.427917003631592 
13 1 0.847570776939392 3.376786470413208 9.661118507385254 
14 1 -6.782150268554688 4.519274711608887 -1.371048331260681 
15 1 -5.392269611358643 -3.798013925552368 5.542229175567627 
16 1 2.979990959167480 -8.995143890380859 4.452339649200439 
17 1 -10.298267364501953 3.617164134979248 5.735929489135742 
18 1 -9.550438880920410 2.292976379394531 -2.388051509857178 
19 1 -0.719742715358734 -1.434102416038513 5.085588932037354 
20 1 -10.258562088012695 -2.589179515838623 8.245014190673828 
21 1 10.843789100646973 -5.648672580718994 5.252029895782471 
22 1 0.027966115623713 -7.381860256195068 -3.251731395721436 
23 1 -5.858133792877197 -7.057830333709717 7.423903942108154 
24 1 7.672894954681396 4.598077297210693 9.117059707641602 
25 1 7.253090858459473 -2.658689260482788 9.252012252807617 
26 1 -5.632662773132324 6.602023601531982 7.028651237487793 
27 1 8.139956474304199 -10.792805671691895 2.386938333511353 
28 1 0.249945446848869 10.438076972961426 5.659153461456299 
29 1 -3.016304016113281 -10.998245239257812 -4.389105319976807 
30 1 -6.074380397796631 2.920464515686035 -7.583775997161865 
31 1 -1.422005176544189 5.099222660064697 -7.534678459167480 
32 1 -11.530426979064941 6.861538410186768 6.352393150329590 
33 1 4.611779689788818 6.145988464355469 1.170763969421387 
34 1 2.155305624008179 3.473670482635498 -0.075079418718815 
35 1 0.482807427644730 -1.650757431983948 -5.464539051055908 
36 1 -10.585510253906250 -11.335144042968750 10.210264205932617 
37 1 11.570755004882812 -0.595834493637085 5.445843696594238 
38 1 -4.767158031463623 1.436738252639771 -1.443499326705933 
39 1 4.748841762542725 -3.913668870925903 -5.993068218231201 
40 1 -7.243089675903320 -4.651317596435547 2.497258424758911 
41 1 -3.262806892395020 -6.743658065795898 -4.948503494262695 
42 1 3.062666416168213 -10.275665283203125 -9.980575561523438 
43 1 -8.543181419372559 5.358039379119873 -9.136731147766113 
44 1 -2.299993753433228 -9.092110633850098 -1.470226645469666 
45 1 -8.426214218139648 10.801401138305664 7.668708801269531 
46 1 0.611237704753876 9.231665611267090 9.317978858947754 
47 1 7.332857608795166 -8.999988555908203 -4.436601161956787 
48 1 4.897611618041992 -8.948877334594727 8.856586456298828 
49 1 3.620634555816650 11.445107460021973 -5.777722358703613 
50 1 -10.810132026672363 -5.576612472534180 2.231846570968628 
51 1 -6.029434680938721 10.177077293395996 5.511001110076904 
52 1 -10.977341651916504 -0.528314232826233 -0.976901054382324 
53 1 -2.025861978530884 1.038185119628906 1.030807614326477 
54 1 -1.505754232406616 -0.676370561122894 -2.153891563415527 
55 1 3.644905328750610 -4.174594402313232 9.989649772644043 
56 1 2.874901056289673 8.239243507385254 -4.236808776855469 
57 1 6.773640632629395 -5.774040222167969 -10.465564727783203 
58 1 3.806380748748779 5.519713878631592 -1.981857419013977 
59 1 3.774849414825439 9.412509918212891 -9.026751518249512 
60 1 0.587801277637482 5.379778385162354 2.786361694335938 
61 1 2.454629182815552 0.963706791400909 -7.259925842285156 
62 1 8.512318611145020 7.631245613098145 -6.060179233551025 
63 1 -1.826995134353638 -5.571655750274658 -0.220836728811264 
64 1 -4.977100849151611 -6.832292556762695 1.200808882713318 
65 1 8.786253929138184 6.219170093536377 -2.720898389816284 
66 1 0.233352765440941 -3.605734348297119 -8.760701179504395 
67 1 5.404345035552979 -3.734127998352051 1.793444752693176 
68 1 9.256295204162598 7.253901958465576 11.270738601684570 
69 1 -11.476741790771484 -9.635476112365723 -2.366973876953125 
70 1 -6.871144771575928 -2.991127252578735 -6.464831829071045 
71 1 -1.082919001579285 9.528751373291016 -6.140680313110352 
72 1 3.795744895935059 1.140918374061584 2.502529144287109 
73 1 -7.483984470367432 0.488740473985672 -5.054449558258057 
74 1 -3.463389396667480 4.553765296936035 -10.403966903686523 
75 1 -10.561411857604980 -6.052152156829834 10.951139450073242 
76 1 3.564584255218506 10.652675628662109 3.633773326873779 
77 1 3.154401540756226 10.342268943786621 -1.621060967445374 
78 1 10.774992942810059 11.274192810058594 0.195894494652748 
79 1 3.957086324691772 -9.637382507324219 -2.988263607025146 
80 1 10.073327064514160 0.625126123428345 -9.846744537353516 
81 1 -9.794449806213379 0.759367108345032 8.334472656250000 
82 1 1.690945386886597 -6.379186153411865 0.166631013154984 
83 1 -2.582607507705688 9.654238700866699 0.272799134254456 
84 1 1.916075468063354 -0.707774341106415 -10.298605918884277 
85 1 -7.738529682159424 -3.127245664596558 10.832585334777832 
86 1 -8.557812690734863 9.512192726135254 1.832434773445129 
87 1 7.655974388122559 8.230154037475586 8.153927803039551 
88 1 -2.769576549530029 1.751647830009460 -6.551860332489014 
89 1 -2.878044366836548 5.269446849822998 4.716342926025391 
90 1 9.592460632324219 -4.244773387908936 -8.453726768493652 
91 1 3.273846626281738 -11.645573616027832 6.938755035400391 
92 1 3.646046161651611 1.723954916000366 -3.124791860580444 
93 1 -7.131274223327637 8.144563674926758 10.158648490905762 
94 1 -8.526448249816895 7.621015548706055 5.045526981353760 
95 1 -8.994285583496094 10.222949981689453 -10.390486717224121 
96 1 5.663442134857178 4.872726440429688 -9.841213226318359 
97 1 -2.162020683288574 -9.426389694213867 9.861055374145508 
98 1 10.540907859802246 -7.402645587921143 -0.009544301778078 
99 1 0.238399147987366 -7.134073734283447 9.972418785095215 
100 1 -7.079185009002686 8.184065818786621 -2.150168180465698 
101 1 4.144263744354248 -0.974079072475433 5.577602863311768 
102 1 6.951542377471924 1.559506058692932 11.077203750610352 
103 1 0.439346492290497 -9.799132347106934 7.305747985839844 
104 1 -10.168655395507812 0.735775768756866 -11.457880973815918 
105 1 7.262840270996094 11.252766609191895 -5.674598693847656 
106 1 -9.586441993713379 -1.838172674179077 -4.263810157775879 
107 1 -5.125939369201660 -4.951001644134521 10.239080429077148 
108 1 -1.614047169685364 6.169780731201172 -4.435099124908447 
109 1 -10.618638992309570 8.091837882995605 -8.140520095825195 
110 1 -1.264100790023804 6.450179100036621 10.598658561706543 
111 1 -1.810350537300110 7.726254940032959 -9.394062042236328 
112 1 7.530502319335938 -7.510161399841309 3.951642036437988 
113 1 11.268404006958008 0.591067612171173 -4.736121177673340 
114 1 11.319482803344727 9.077578544616699 -4.477067470550537 
115 1 6.809255123138428 3.631537199020386 -3.215026140213013 
116 1 -7.991835117340088 -7.779435634613037 4.347480297088623 
117 1 -2.303577423095703 -3.646185874938965 7.695787906646729 
118 1 -2.997344255447388 8.879182815551758 6.251855850219727 
119 1 3.484553813934326 -6.992022037506104 -11.489464759826660 
120 1 11.068896293640137 9.626631736755371 8.686880111694336 
121 1 9.810338020324707 4.092240810394287 -5.521890163421631 
122 1 -6.678660869598389 11.422174453735352 -4.070182800292969 
123 1 11.618981361389160 4.002737522125244 8.863729476928711 
124 1 7.519406795501709 -11.448807716369629 8.664690971374512 
125 1 -7.022090435028076 0.556339263916016 10.991263389587402 
126 1 -9.770343780517578 1.491856932640076 2.946742296218872 
127 1 -10.778165817260742 2.754295825958252 -7.699194431304932 
128 1 -3.110322952270508 0.135956883430481 7.520311355590820 
129 1 2.701794147491455 -6.213331222534180 7.110360145568848 
130 1 -3.883145570755005 -4.398416042327881 -7.834993362426758 
131 1 -3.650365591049194 6.513391017913818 -1.531977653503418 
132 1 4.843444347381592 -7.684173583984375 1.343760848045349 
133 1 -5.562177181243896 7.533225536346436 -9.736985206604004 
134 1 -7.971835613250732 0.330778419971466 -8.644647598266602 
135 1 7.262177467346191 9.567834854125977 -8.943192481994629 
136 1 -8.354002952575684 -8.789377212524414 9.043762207031250 
137 1 -1.599619388580322 -4.011350631713867 -3.588227987289429 
138 1 -7.215303897857666 -0.817518711090088 1.487791299819946 
139 1 -5.254744529724121 -10.698981285095215 8.287971496582031 
140 1 -4.231683731079102 3.661905050277710 -3.720479488372803 
141 1 8.445941925048828 -9.026374816894531 -10.617431640625000 
142 1 1.526217699050903 8.454564094543457 1.173454403877258 
143 1 0.336148560047150 1.877982974052429 3.886375665664673 
144 1 8.713388442993164 11.056170463562012 -2.416609764099121 
145 1 7.298374652862549 -9.153505325317383 -0.832026839256287 
146 1 -11.491594314575195 -2.630375385284424 -11.066784858703613 
147 1 -1.849273800849915 1.152171492576599 10.450733184814453 
148 1 5.763410568237305 0.942118346691132 -0.618598580360413 
149 1 -4.870335102081299 -5.056839466094971 -2.226058483123779 
150 1 6.527226924896240 -2.450497388839722 -1.560715794563293 
151 1 9.521812438964844 10.899168014526367 -11.427863121032715 
152 1 0.962557017803192 -2.919482469558716 -1.004717588424683 
153 1 -1.192234158515930 -2.651799201965332 1.958170056343079 
154 1 5.143359661102295 7.065141201019287 -6.882526874542236 
155 1 9.370406150817871 -1.647655248641968 0.741144597530365 
156 1 -6.429735183715820 2.909622430801392 1.628123760223389 
157 1 5.870230674743652 1.891387581825256 7.406226158142090 
158 1 10.067479133605957 -0.344950050115585 9.818692207336426 
159 1 -7.630853652954102 6.044183731079102 1.920632600784302 
160 1 -3.663121461868286 4.374436378479004 9.354117393493652 
161 1 -6.622362136840820 0.701648235321045 4.778867721557617 
162 1 -3.586975097656250 9.398222923278809 9.781656265258789 
163 1 11.540799140930176 -7.279270648956299 -9.111582756042480 
164 1 -1.971169114112854 -4.927572250366211 -11.204623222351074 
165 1 7.676642417907715 4.131064891815186 0.226959630846977 
166 1 -7.355239391326904 10.368963241577148 -7.228779792785645 
167 1 -5.596967697143555 -8.556446075439453 -2.899772167205811 
168 1 8.091771125793457 -2.430326938629150 -10.361728668212891 
169 1 0.865898370742798 -9.088869094848633 -6.756158351898193 
170 1 -0.350996941328049 9.569218635559082 -2.565972805023193 
171 1 6.927160739898682 -5.837221145629883 9.052986145019531 
172 1 -8.493775367736816 7.313342094421387 -5.601487636566162 
173 1 3.411917924880981 -2.124011039733887 -3.234928846359253 
174 1 3.057091712951660 -5.690615177154541 3.713202238082886 
175 1 -11.302512168884277 -9.322277069091797 7.001308441162109 
176 1 -4.995895862579346 6.122316360473633 -6.261267662048340 
177 1 8.958357810974121 -4.932210445404053 1.771033287048340 
178 1 4.920399665832520 4.052793502807617 4.384421348571777 
179 1 5.979228973388672 -9.973320007324219 -7.946918010711670 
180 1 -10.878973960876465 4.402556419372559 -11.237077713012695 
181 1 -10.921353340148926 -1.898683786392212 -7.834435462951660 
182 1 2.313419103622437 -9.766698837280273 0.176177099347115 
183 1 3.974249362945557 8.198615074157715 7.997144699096680 
184 1 -3.895656347274780 -8.726558685302734 -10.232198715209961 
185 1 -7.258703231811523 -7.133934497833252 -10.896342277526855 
186 1 0.334025949239731 1.577400803565979 -4.424548149108887 
187 1 -5.251759529113770 -1.939786076545715 -10.097933769226074 
188 1 9.336869239807129 8.342236518859863 0.287730634212494 
189 1 9.943445205688477 5.427964210510254 -8.574646949768066 
190 1 2.343313217163086 -10.586230278015137 10.175834655761719 
191 1 -6.672071933746338 4.382493019104004 11.189451217651367 
192 1 10.450397491455078 10.738806724548340 -7.335033893585205 
193 1 -0.279466152191162 11.567390441894531 1.998004436492920 
194 1 2.145569801330566 7.240004539489746 -11.156745910644531 
195 1 -8.913652420043945 -8.374004364013672 -4.397002696990967 
196 1 5.860347747802734 -4.466238975524902 5.589473724365234 
197 1 -8.441326141357422 -4.843842983245850 -3.360501289367676 
198 1 7.620847225189209 2.321971654891968 -7.968045234680176 
199 1 8.972370147705078 -1.120398998260498 -6.762097835540771 
200 1 10.844292640686035 -3.978655099868774 -1.304443359375000 
201 1 -9.747497558593750 -11.085083007812500 4.481151103973389 
202 1 3.845477819442749 -3.791870355606079 -9.696094512939453 
203 1 8.373182296752930 3.066865444183350 3.693063974380493 
204 1 -8.340980529785156 -7.026829242706299 -0.223846778273582 
205 1 -6.692180156707764 2.733847141265869 7.957186222076416 
206 1 10.366583824157715 5.767922401428223 2.131687641143799 
207 1 -6.436491966247559 -6.461680889129639 -7.356650352478027 
208 1 -2.471863031387329 -10.768762588500977 -7.950381278991699 
209 1 -0.040124468505383 -8.139365196228027 2.660993814468384 
210 1 5.459945678710938 -0.289178848266602 -5.917467117309570 
211 1 5.663495540618896 8.039395332336426 11.361911773681641 
212 1 -4.094754695892334 -1.103079676628113 3.196662664413452 
213 1 2.700854063034058 6.066287040710449 5.834163188934326 
214 1 6.192210197448730 -10.336978912353516 5.508509159088135 
215 1 -1.406504034996033 10.774143218994141 -11.374931335449219 
216 1 6.630631923675537 9.149477005004883 2.012928009033203 
217 1 -2.194508790969849 -1.097227692604065 -7.987103462219238 
218 1 4.921563148498535 3.379750967025757 -6.287554740905762 
219 1 7.053270816802979 -6.217996120452881 -6.723707675933838 
220 1 -6.552321434020996 -1.100291609764099 7.828361511230469 
221 1 -1.059151053428650 8.028582572937012 3.360823631286621 
222 1 -1.963133335113525 -7.268115997314453 6.816626548767090 
223 2 -5.186116218566895 -1.428658366203308 1.367767691612244 
224 2 -9.125946998596191 8.493772506713867 -1.510713934898376 
225 2 10.319442749023438 9.608006477355957 4.711029052734375 
226 2 6.450099945068359 2.713165044784546 -0.364155054092407 
227 2 -4.170697689056396 -8.524831771850586 1.085095763206482 
228 2 9.273430824279785 -2.715911626815796 -5.447719097137451 
229 2 9.173513412475586 -8.813061714172363 -5.238868713378906 
230 2 -8.187994956970215 7.754094123840332 0.982920706272125 
231 2 -6.194469928741455 9.593726158142090 -3.505501270294189 
232 2 10.929220199584961 11.011466979980469 10.198025703430176 
233 2 -5.950618743896484 2.791660070419312 -0.623109519481659 
234 2 6.666394233703613 -10.725554466247559 3.711967945098877 
235 2 7.318338394165039 -4.308276176452637 -2.249824285507202 
236 2 10.706412315368652 -5.904277324676514 -1.279039978981018 
237 2 9.109615325927734 10.251166343688965 -8.604751586914062 
238 2 -5.083001136779785 -10.520033836364746 -10.695228576660156 
239 2 11.014361381530762 -3.507416009902954 -7.329425334930420 
240 2 -3.637506246566772 8.111890792846680 -9.830137252807617 
241 2 7.388172149658203 7.713176250457764 10.285861015319824 
242 2 6.053905963897705 3.656377315521240 -8.077187538146973 
243 2 -9.621426582336426 -11.263565063476562 -9.785742759704590 
244 2 -2.774439811706543 8.470705986022949 4.281906127929688 
245 2 -1.272653937339783 9.406914710998535 -10.103720664978027 
246 2 4.337795734405518 -10.632093429565430 -7.049315929412842 
247 2 6.387236118316650 -5.803558826446533 -8.510715484619141 
248 2 9.297018051147461 10.107668876647949 -0.666191816329956 
249 2 -6.346880912780762 -8.986865997314453 8.191320419311523 
250 2 -7.157232761383057 -11.227445602416992 -8.081251144409180 
251 2 -3.812477111816406 10.816450119018555 -0.730160176753998 
252 2 -11.449101448059082 -9.995610237121582 11.430456161499023 
253 2 2.054776430130005 4.230448722839355 8.281927108764648 
254 2 -9.390692710876465 1.658777356147766 -8.468648910522461 
255 2 -11.444540977478027 7.526675701141357 -3.572820663452148 
256 2 -6.980180740356445 10.505595207214355 1.841560482978821 
257 2 10.913335800170898 0.744189620018005 -0.660345613956451 
258 2 10.503894805908203 2.716184616088867 -4.243134021759033 
259 2 11.574609756469727 8.517780303955078 7.240949630737305 
260 2 11.200876235961914 10.956562995910645 -10.434132575988770 
261 2 4.452221393585205 -3.555230140686035 -7.836575984954834 
262 2 4.574045658111572 5.145747184753418 2.788619995117188 
263 2 -0.385606974363327 -8.656554222106934 -1.882300138473511 
264 2 -3.715311527252197 -5.340234756469727 11.473940849304199 
265 2 -3.747051239013672 0.908507645130157 0.047045592218637 
266 2 -3.816040992736816 -3.561203956604004 6.644721508026123 
267 2 -2.197848796844482 -10.521803855895996 -2.744023323059082 
268 2 -4.582606792449951 7.981793880462646 -5.438281059265137 
269 2 9.344465255737305 7.431274890899658 -1.359610676765442 
270 2 -9.831579208374023 10.654643058776855 11.282790184020996 
271 2 -7.870849609375000 -8.960383415222168 -10.103604316711426 
272 2 3.250542879104614 -4.609567642211914 -11.436774253845215 
273 2 -8.706628799438477 -6.006297111511230 -1.806894779205322 
274 2 10.183084487915039 -3.194911003112793 -10.134887695312500 
275 2 -9.015141487121582 -0.146199494600296 2.044163465499878 
276 2 5.504442214965820 -0.960410058498383 -0.887595832347870 
277 2 7.864161491394043 4.622986793518066 -1.698400735855103 
278 2 -3.208899021148682 -0.191464096307755 -6.207625865936279 
279 2 7.192327022552490 8.537498474121094 0.092135399580002 
280 2 -4.822867870330811 -11.144473075866699 1.714875936508179 
281 2 2.477695941925049 -9.543718338012695 -1.693033218383789 
282 2 -10.257002830505371 -3.752409219741821 -3.808790922164917 
283 2 -9.759218215942383 -8.255455017089844 7.608113288879395 
284 2 -8.352336883544922 1.313905596733093 4.207161426544189 
285 2 8.955389976501465 2.042782545089722 -10.573578834533691 
286 2 7.711660861968994 -2.592813491821289 11.128623962402344 
287 2 -2.235781192779541 -1.532912015914917 3.748849630355835 
288 2 9.337444305419922 2.808061122894287 -0.201338604092598 
289 2 -6.711463928222656 6.341761112213135 10.938731193542480 
290 2 -7.602241516113281 9.054035186767578 6.218727588653564 
291 2 11.242079734802246 6.837524890899658 -8.409857749938965 
292 2 2.027077913284302 6.025913238525391 -1.453569293022156 
293 2 -7.937354087829590 -3.459625482559204 -4.813359737396240 
294 2 -3.223520755767822 0.739365577697754 2.614441394805908 
295 2 -10.345977783203125 -6.072371006011963 -8.392043113708496 
296 2 -4.182211399078369 6.247013092041016 5.754895687103271 
297 2 3.556537866592407 -5.834334373474121 -9.233314514160156 
298 2 -1.103759288787842 11.138726234436035 -7.572849273681641 
299 2 -8.740401268005371 -10.287044525146484 -4.286270141601562 
300 2 -1.901740670204163 7.288817882537842 6.457455158233643 
301 2 1.246827960014343 -11.079372406005859 -6.402075290679932 
302 2 -8.264719963073730 1.858159542083740 -3.834625005722046 
303 2 -7.345338344573975 -6.112049579620361 -9.196203231811523 
304 2 -6.708277702331543 -4.013523101806641 9.512599945068359 
305 2 -1.850587487220764 0.888118803501129 -8.296651840209961 
306 2 -1.958265304565430 -9.941861152648926 0.144959077239037 
307 2 -2.581296205520630 3.765872001647949 3.384476184844971 
308 2 2.678892374038696 -0.338119953870773 1.578925728797913 
309 2 2.136171102523804 -3.729030370712280 -2.577012777328491 
310 2 -9.290708541870117 -3.960075616836548 7.095252037048340 
311 2 7.591075420379639 -11.494746208190918 6.368525505065918 
312 2 -5.110456466674805 -2.264630556106567 -6.078040122985840 
313 2 5.845843315124512 8.008944511413574 7.129902362823486 
314 2 1.242094516754150 -6.158248424530029 -4.204128265380859 
315 2 3.904496431350708 4.080899715423584 -9.854315757751465 
316 2 0.009955681860447 8.778288841247559 4.705951213836670 
317 2 1.026044249534607 -10.932155609130859 0.968317806720734 
318 2 -8.038994789123535 -3.479691505432129 -7.873661518096924 
319 2 6.005269050598145 -10.761621475219727 9.769285202026367 
320 2 -11.110895156860352 -11.068736076354980 0.892847359180450 
321 2 -3.376275539398193 -4.810760498046875 -3.506659030914307 
322 2 1.656283378601074 7.365618705749512 -5.516634941101074 
323 2 -8.463536262512207 2.025385141372681 7.743093490600586 
324 2 10.182742118835449 -8.654973983764648 -9.350635528564453 
325 2 -4.628518104553223 -10.176747322082520 6.390130996704102 
326 2 11.370519638061523 -0.908511638641357 -9.442647933959961 
327 2 -10.649678230285645 -4.004002094268799 -0.871805787086487 
328 2 -2.044649839401245 3.044680118560791 0.397429764270782 
329 2 8.387400627136230 11.400419235229492 10.333044052124023 
330 2 7.125638961791992 10.033970832824707 8.466382026672363 
331 2 9.864872932434082 6.567704200744629 5.850231647491455 
332 2 -7.087350368499756 -3.908918857574463 4.347502708435059 
333 2 -2.568147897720337 -7.688985347747803 -6.501989841461182 
334 2 -6.440848827362061 1.586177945137024 -9.094257354736328 
335 2 3.072423934936523 6.153122425079346 -3.740236282348633 
336 2 5.877677917480469 -3.646286964416504 -0.154189273715019 
337 2 7.796416759490967 -10.924074172973633 -1.366406798362732 
338 2 -1.006501078605652 -5.964652538299561 10.777518272399902 
339 2 -9.564754486083984 0.836305141448975 -1.089886188507080 
340 2 -9.013174057006836 -6.306366443634033 -4.440730094909668 
341 2 7.228281021118164 9.885724067687988 -2.611221075057983 
342 2 7.928116798400879 3.128182172775269 10.389938354492188 
343 2 -11.109589576721191 5.296473503112793 5.324755191802979 
344 2 8.149975776672363 8.036594390869141 -7.946782112121582 
345 2 -4.957728862762451 4.542932987213135 -7.417040348052979 
346 2 -11.181598663330078 3.061429977416992 -1.244504094123840 
347 2 5.030429840087891 -2.693585872650146 5.390744209289551 
348 2 10.465558052062988 5.080761432647705 -2.484553813934326 
349 2 4.824847221374512 7.863198280334473 9.661758422851562 
350 2 9.537632942199707 -10.889891624450684 1.086820840835571 
351 2 -5.115794181823730 -7.276754856109619 -5.952851772308350 
352 2 5.267374038696289 2.490041494369507 11.608654975891113 
353 2 -6.500170230865479 11.588753700256348 4.345187187194824 
354 2 1.176588177680969 -4.832374095916748 6.387046337127686 
355 2 3.552476882934570 -10.545547485351562 8.644323348999023 
356 2 2.446161508560181 -5.829536914825439 1.840781092643738 
357 2 3.730523586273193 -2.343907117843628 10.346013069152832 
358 2 2.058279514312744 -1.855966091156006 -4.495718479156494 
359 2 -4.196054935455322 -9.101624488830566 -1.753046870231628 
360 2 9.883012771606445 2.178410291671753 2.959272623062134 
361 2 -11.552873611450195 -5.925824642181396 7.078131198883057 
362 2 3.228889465332031 -11.497503280639648 -0.198508039116859 
363 2 8.783550262451172 -2.385209560394287 -8.239606857299805 
364 2 -8.484125137329102 -3.705411434173584 -10.884187698364258 
365 2 -9.405420303344727 6.810657978057861 6.762841701507568 
366 2 -4.502437591552734 11.278070449829102 -3.851624488830566 
367 2 -7.936337471008301 4.436050415039062 -10.780123710632324 
368 2 -0.951110899448395 -5.432201862335205 -2.150186777114868 
369 2 0.107465304434299 -7.795276641845703 -9.305224418640137 
370 2 -2.308410406112671 8.635807037353516 -7.638848781585693 
371 2 -8.230081558227539 -5.960524082183838 -6.824131011962891 
372 2 -4.371687889099121 -7.306347370147705 3.356001615524292 
373 2 -2.636686801910400 -1.755786180496216 8.248990058898926 
374 2 11.198558807373047 5.241440773010254 -4.923903465270996 
375 2 -1.501627206802368 -3.339460611343384 11.023929595947266 
376 2 -0.251576632261276 -6.386564254760742 0.590958654880524 
377 2 4.708378791809082 -2.064266920089722 -5.421045303344727 
378 2 10.216469764709473 -3.747251033782959 -3.111133575439453 
379 2 6.848707199096680 -9.910244941711426 -11.247430801391602 
380 2 -11.503339767456055 -8.153946876525879 5.520748138427734 
381 2 -6.867958545684814 4.508310794830322 2.997777700424194 
382 2 10.528812408447266 9.770655632019043 1.542547702789307 
383 2 -5.653212070465088 -0.163041114807129 -1.649148225784302 
384 2 -0.568866252899170 -8.613774299621582 11.052347183227539 
385 2 -10.325579643249512 8.544322013854980 -10.042419433593750 
386 2 -7.323186874389648 4.447960376739502 -3.166459560394287 
387 2 -4.945327758789062 3.102458238601685 8.569009780883789 
388 2 7.023958683013916 7.024661064147949 -2.642392158508301 
389 2 -7.922070980072021 7.770589828491211 -3.843420743942261 
390 2 4.039093971252441 10.148082733154297 7.737896919250488 
391 2 -11.189967155456543 -0.611774027347565 9.026137351989746 
392 2 1.905638575553894 5.358508586883545 -7.081518650054932 
393 2 -7.566905498504639 -1.262872934341431 -6.153781414031982 
394 2 4.805809497833252 -0.032022863626480 3.843070030212402 
395 2 -1.026774048805237 5.359003543853760 1.591625571250916 
396 2 10.935086250305176 -1.892010211944580 4.045838832855225 
397 2 -6.618273735046387 3.147239208221436 -5.740201950073242 
398 2 -0.844874680042267 -1.153842926025391 -6.634067535400391 
399 2 -3.731798648834229 -9.602953910827637 8.828421592712402 
400 2 -0.502922236919403 6.878370285034180 -8.112461090087891 
401 2 9.828289031982422 -4.481228351593018 3.652970075607300 
402 2 -11.019098281860352 -4.489388942718506 4.905078887939453 
403 2 -6.506743431091309 -5.111333370208740 -3.173074483871460 
404 2 3.612777233123779 -3.100542545318604 1.636982202529907 
405 2 -8.063367843627930 -4.996336460113525 0.578600645065308 
406 2 3.010389566421509 0.708234429359436 6.195358753204346 
407 2 5.679770946502686 -0.063346512615681 6.571872711181641 
408 2 -10.113046646118164 -6.548413753509521 0.708339691162109 
409 2 5.151648044586182 -5.772035598754883 1.079327106475830 
410 2 5.549919605255127 -4.167131900787354 -10.526387214660645 
411 2 0.831153094768524 -2.348187685012817 0.976499974727631 
412 2 -0.956926763057709 -9.949034690856934 2.525428771972656 
413 2 -5.005014896392822 7.302472591400146 -7.809980869293213 
414 2 -7.583378791809082 -1.503111481666565 -0.307174623012543 
415 2 3.937566995620728 -5.313447952270508 5.699801445007324 
416 2 9.566064834594727 -1.725946068763733 6.068541526794434 
417 2 8.363200187683105 -4.259007930755615 9.031113624572754 
418 2 -6.322156906127930 -10.539549827575684 -5.432002544403076 
419 2 -1.275248765945435 -0.791725993156433 10.463976860046387 
420 2 3.467150211334229 7.676599502563477 -7.918196201324463 
421 2 -10.547780990600586 0.686810314655304 6.566262722015381 
422 2 9.204457283020020 7.310839176177979 -4.265348911285400 
423 2 -1.873496413230896 4.494556903839111 6.176708221435547 
424 2 4.104221820831299 -9.587614059448242 1.192269563674927 
425 2 -0.342233538627625 -10.907387733459473 5.966909408569336 
426 2 -6.568367004394531 -0.555687904357910 3.298078536987305 
427 2 8.029713630676270 -2.057867288589478 -0.467133224010468 
428 2 -2.815672397613525 -1.638441920280457 -1.109328508377075 
429 2 3.908288717269897 2.910062074661255 -4.632182121276855 
430 2 1.468708038330078 -10.136100769042969 -8.730329513549805 
431 2 -5.314608573913574 8.649567604064941 9.637475013732910 
432 2 -11.176305770874023 -10.011343002319336 3.540271043777466 
433 2 -10.536222457885742 8.027906417846680 4.864929676055908 
434 2 6.165650367736816 -5.335692405700684 7.337201595306396 
435 2 -1.644312977790833 -6.180947780609131 5.170627593994141 
436 2 9.957903861999512 0.419585466384888 -2.977867364883423 
437 2 -11.048981666564941 -3.679903745651245 1.947759270668030 
438 2 -5.817781448364258 9.548386573791504 -8.720926284790039 
439 2 -3.471655845642090 -10.151438713073730 3.935040950775146 
440 2 -1.496634602546692 1.922598004341125 4.779616355895996 
441 2 -6.906502723693848 -10.842988014221191 0.115252673625946 
442 2 1.088569402694702 8.358171463012695 11.108167648315430 
443 2 -0.906233906745911 -9.537311553955078 -7.606793880462646 
444 2 -6.871933460235596 4.725988388061523 0.586474537849426 
445 2 -7.342576026916504 1.107293248176575 -6.890183925628662 
446 2 7.429235935211182 1.454666852951050 3.897904872894287 
447 2 -6.631789684295654 0.800856828689575 9.002186775207520 
448 2 0.346182674169540 3.765903472900391 3.682549476623535 
449 2 9.212234497070312 5.817449569702148 -6.759517669677734 
450 2 11.532496452331543 -6.522027492523193 3.618119001388550 
451 2 0.746306240558624 2.331024646759033 5.939572811126709 
452 2 2.766639709472656 -1.502667188644409 4.357181072235107 
453 2 2.588171958923340 -1.660000324249268 -1.408838629722595 
454 2 -4.577478885650635 3.373532772064209 1.616328597068787 
455 2 10.230159759521484 0.742674350738525 5.742556571960449 
456 2 -6.443197250366211 11.226405143737793 7.258276939392090 
457 2 3.845442771911621 8.286373138427734 -10.792725563049316 
458 2 -3.439761400222778 0.283122986555099 9.536959648132324 
459 2 5.863062381744385 4.937662601470947 9.561856269836426 
460 2 -2.008178949356079 -5.516677856445312 7.644785881042480 
461 2 6.841231822967529 8.366294860839844 -10.428006172180176 
462 2 11.422057151794434 5.798349857330322 8.055121421813965 
463 2 -1.153227210044861 6.184799671173096 4.065672874450684 
464 2 0.593122541904449 -1.439154148101807 6.580309867858887 
465 2 5.517877578735352 2.099117279052734 -2.654332637786865 
466 2 9.755223274230957 -4.567330360412598 6.345518589019775 
467 2 -4.824274063110352 4.315614700317383 10.883096694946289 
468 2 9.517217636108398 -10.637279510498047 -10.701479911804199 
469 2 -8.876481056213379 -9.400406837463379 5.087502956390381 
470 2 -8.938857078552246 -8.912554740905762 0.171013265848160 
471 2 2.529791593551636 -7.170780181884766 5.311490535736084 
472 2 0.405049175024033 0.463720500469208 -10.242938041687012 
473 2 6.753519058227539 -7.337108612060547 -5.184391021728516 
474 2 -2.532649755477905 -7.433827877044678 -9.654642105102539 
475 2 -0.976735711097717 10.075806617736816 -0.801555514335632 