LAMMPS (7 Dec 2015)
Reading data file ...
  triclinic box = (0 0 0) to (23.3007 23.3007 23.3007) with tilt (0 0 0)
  2 by 2 by 3 MPI processor grid
  reading atoms ...
  1008 atoms
Bisection: Getting new map
Scanning dump file ...
Reading snapshot from dump file ...
  triclinic box = (0 0 0) to (23.3007 23.3007 23.3007) with tilt (0 0 0)
  1008 atoms before read
  1008 atoms in snapshot
  0 atoms purged
  1008 atoms replaced
  0 atoms trimmed
  0 atoms added
  1008 atoms after read
Scanning dump file ...
Reading snapshot from dump file ...
  triclinic box = (0 0 0) to (23.3007 23.3007 23.3007) with tilt (0 0 0)
  1008 atoms before read
  1008 atoms in snapshot
  0 atoms purged
  1008 atoms replaced
  0 atoms trimmed
  0 atoms added
  1008 atoms after read
CR_UPDATE- 23.300680	23.300680	23.300680	0.000000	0.000000	0.000000
For k = 0, applying strain of 0.995
Changing box ...
  triclinic box = (0.0582517 0 0) to (23.2424 23.3007 23.3007) with tilt (0 0 0)
WARNING: Resetting reneighboring criteria during minimization (../min.cpp:168)
Ewald initialization ...
  G vector (1/distance) = 0.365089
  estimated absolute RMS force accuracy = 1.92191e-05
  estimated relative force accuracy = 1.33469e-06
  KSpace vectors: actual max1d max3d = 2088 10 4630
                  kxmax kymax kzmax  = 10 10 10
Neighbor list info ...
  2 neighbor list requests
  update every 1 steps, delay 0 steps, check yes
  max neighbors/atom: 2000, page size: 100000
  master list distance cutoff = 11
  ghost atom cutoff = 11
Setting up cg style minimization ...
  Unit style: metal
Memory usage per processor = 4.56167 Mbytes
Step Temp E_pair E_mol TotEng Press 
       0           10   -18273.879            0   -18272.577    4710.3433 
      22           10   -18274.027            0   -18272.725    1010.4748 
Loop time of 0.245074 on 12 procs for 22 steps with 1008 atoms

99.7% CPU use with 12 MPI tasks x no OpenMP threads

Minimization stats:
  Stopping criterion = linesearch alpha is zero
  Energy initial, next-to-last, final = 
        -18273.8789084     -18274.0268078     -18274.0268078
  Force two-norm initial, final = 1.82274 0.13014
  Force max component initial, final = 0.160235 0.0123854
  Final line search alpha, max atom move = 4.76837e-07 5.90583e-09
  Iterations, force evaluations = 22 85

MPI task timing breakdown:
Section |  min time  |  avg time  |  max time  |%varavg| %total
---------------------------------------------------------------
Pair    | 0.087397   | 0.093535   | 0.098866   |   1.0 | 38.17
Kspace  | 0.13543    | 0.13833    | 0.14109    |   0.5 | 56.44
Neigh   | 0          | 0          | 0          |   0.0 |  0.00
Comm    | 0.0086145  | 0.011747   | 0.016632   |   2.5 |  4.79
Output  | 0          | 0          | 0          |   0.0 |  0.00
Modify  | 0          | 0          | 0          |   0.0 |  0.00
Other   |            | 0.001464   |            |       |  0.60

Nlocal:    84 ave 87 max 79 min
Histogram: 1 1 1 0 0 1 2 1 3 2
Nghost:    2613.08 ave 2634 max 2590 min
Histogram: 1 2 0 1 2 1 1 0 3 1
Neighs:    18727.8 ave 19403 max 17571 min
Histogram: 1 2 0 0 0 1 2 1 2 3

Total # of neighbors = 224733
Ave neighs/atom = 222.949
Neighbor list builds = 0
Dangerous builds = 0
CR_UPDATE- 23.300680	23.300680	23.300680	0.000000	0.000000	0.000000
For k = 1, applying strain of 0.996667
Changing box ...
  triclinic box = (0.0388306 0 0) to (23.2618 23.3007 23.3007) with tilt (0 0 0)
WARNING: Resetting reneighboring criteria during minimization (../min.cpp:168)
Ewald initialization ...
  G vector (1/distance) = 0.365078
  estimated absolute RMS force accuracy = 1.92793e-05
  estimated relative force accuracy = 1.33888e-06
  KSpace vectors: actual max1d max3d = 2084 10 4630
                  kxmax kymax kzmax  = 10 10 10
Setting up cg style minimization ...
  Unit style: metal
Memory usage per processor = 4.56167 Mbytes
Step Temp E_pair E_mol TotEng Press 
      22           10   -18273.959            0   -18272.657    1110.4674 
      38           10   -18274.023            0   -18272.721   -1264.9828 
Loop time of 0.312893 on 12 procs for 16 steps with 1008 atoms

99.9% CPU use with 12 MPI tasks x no OpenMP threads

Minimization stats:
  Stopping criterion = linesearch alpha is zero
  Energy initial, next-to-last, final = 
          -18273.95895     -18274.0226113     -18274.0226113
  Force two-norm initial, final = 1.20766 0.134431
  Force max component initial, final = 0.105801 0.0125669
  Final line search alpha, max atom move = 4.76837e-07 5.99236e-09
  Iterations, force evaluations = 16 109

MPI task timing breakdown:
Section |  min time  |  avg time  |  max time  |%varavg| %total
---------------------------------------------------------------
Pair    | 0.11089    | 0.11938    | 0.12588    |   1.2 | 38.15
Kspace  | 0.17395    | 0.17693    | 0.17929    |   0.4 | 56.55
Neigh   | 0          | 0          | 0          |   0.0 |  0.00
Comm    | 0.010835   | 0.014954   | 0.021069   |   2.9 |  4.78
Output  | 0          | 0          | 0          |   0.0 |  0.00
Modify  | 0          | 0          | 0          |   0.0 |  0.00
Other   |            | 0.001631   |            |       |  0.52

Nlocal:    84 ave 87 max 79 min
Histogram: 1 1 1 0 0 1 2 1 3 2
Nghost:    2611.08 ave 2634 max 2587 min
Histogram: 1 2 1 2 0 1 0 1 3 1
Neighs:    18697.3 ave 19370 max 17543 min
Histogram: 1 1 1 0 0 1 2 1 2 3

Total # of neighbors = 224368
Ave neighs/atom = 222.587
Neighbor list builds = 0
Dangerous builds = 0
CR_UPDATE- 23.300680	23.300680	23.300680	0.000000	0.000000	0.000000
For k = 2, applying strain of 0.998333
Changing box ...
  triclinic box = (0.0194211 0 0) to (23.2813 23.3007 23.3007) with tilt (0 0 0)
WARNING: Resetting reneighboring criteria during minimization (../min.cpp:168)
Ewald initialization ...
  G vector (1/distance) = 0.365066
  estimated absolute RMS force accuracy = 1.9345e-05
  estimated relative force accuracy = 1.34344e-06
  KSpace vectors: actual max1d max3d = 2084 10 4630
                  kxmax kymax kzmax  = 10 10 10
Setting up cg style minimization ...
  Unit style: metal
Memory usage per processor = 4.56167 Mbytes
Step Temp E_pair E_mol TotEng Press 
      38           10   -18273.952            0    -18272.65   -2448.6766 
      50           10   -18273.969            0   -18272.667   -3590.1167 
      52           10   -18273.969            0   -18272.667   -3604.6783 
Loop time of 0.18833 on 12 procs for 14 steps with 1008 atoms

99.9% CPU use with 12 MPI tasks x no OpenMP threads

Minimization stats:
  Stopping criterion = linesearch alpha is zero
  Energy initial, next-to-last, final = 
        -18273.9519067     -18273.9690258     -18273.9690258
  Force two-norm initial, final = 0.599871 0.0730319
  Force max component initial, final = 0.0523938 0.00627977
  Final line search alpha, max atom move = 1.90735e-06 1.19777e-08
  Iterations, force evaluations = 14 65

MPI task timing breakdown:
Section |  min time  |  avg time  |  max time  |%varavg| %total
---------------------------------------------------------------
Pair    | 0.066229   | 0.071351   | 0.075774   |   0.9 | 37.89
Kspace  | 0.10502    | 0.10701    | 0.10843    |   0.4 | 56.82
Neigh   | 0          | 0          | 0          |   0.0 |  0.00
Comm    | 0.0064344  | 0.0089029  | 0.012558   |   2.2 |  4.73
Output  | 2.1935e-05 | 2.3643e-05 | 3.1948e-05 |   0.1 |  0.01
Modify  | 0          | 0          | 0          |   0.0 |  0.00
Other   |            | 0.001045   |            |       |  0.56

Nlocal:    84 ave 87 max 79 min
Histogram: 1 1 1 0 0 1 2 1 3 2
Nghost:    2610.33 ave 2634 max 2586 min
Histogram: 1 2 1 2 0 1 0 1 3 1
Neighs:    18670.8 ave 19345 max 17518 min
Histogram: 1 2 0 0 0 1 2 1 2 3

Total # of neighbors = 224050
Ave neighs/atom = 222.272
Neighbor list builds = 0
Dangerous builds = 0
CR_UPDATE- 23.300680	23.300680	23.300680	0.000000	0.000000	0.000000
For k = 3, applying strain of 1
Changing box ...
  triclinic box = (0 0 0) to (23.3007 23.3007 23.3007) with tilt (0 0 0)
WARNING: Resetting reneighboring criteria during minimization (../min.cpp:168)
Ewald initialization ...
  G vector (1/distance) = 0.365055
  estimated absolute RMS force accuracy = 1.94166e-05
  estimated relative force accuracy = 1.34841e-06
  KSpace vectors: actual max1d max3d = 2084 10 4630
                  kxmax kymax kzmax  = 10 10 10
Setting up cg style minimization ...
  Unit style: metal
Memory usage per processor = 4.56167 Mbytes
Step Temp E_pair E_mol TotEng Press 
      52           10   -18273.868            0   -18272.567   -5974.1648 
      53           10   -18273.868            0   -18272.567   -5974.1648 
Loop time of 0.0679199 on 12 procs for 1 steps with 1008 atoms

99.6% CPU use with 12 MPI tasks x no OpenMP threads

Minimization stats:
  Stopping criterion = linesearch alpha is zero
  Energy initial, next-to-last, final = 
        -18273.8684535     -18273.8684535     -18273.8684535
  Force two-norm initial, final = 0.00473568 0.00473568
  Force max component initial, final = 0.000368722 0.000368722
  Final line search alpha, max atom move = 0.000488281 1.8004e-07
  Iterations, force evaluations = 1 23

MPI task timing breakdown:
Section |  min time  |  avg time  |  max time  |%varavg| %total
---------------------------------------------------------------
Pair    | 0.024114   | 0.025771   | 0.027318   |   0.5 | 37.94
Kspace  | 0.037853   | 0.038594   | 0.039038   |   0.2 | 56.82
Neigh   | 0          | 0          | 0          |   0.0 |  0.00
Comm    | 0.0023291  | 0.0032278  | 0.0045717  |   1.3 |  4.75
Output  | 0          | 0          | 0          |   0.0 |  0.00
Modify  | 0          | 0          | 0          |   0.0 |  0.00
Other   |            | 0.0003268  |            |       |  0.48

Nlocal:    84 ave 87 max 79 min
Histogram: 1 1 1 0 0 1 2 1 3 2
Nghost:    2607.33 ave 2630 max 2584 min
Histogram: 2 1 0 3 0 1 1 0 2 2
Neighs:    18641.8 ave 19314 max 17494 min
Histogram: 2 1 0 0 0 1 2 1 2 3

Total # of neighbors = 223701
Ave neighs/atom = 221.926
Neighbor list builds = 0
Dangerous builds = 0
CR_UPDATE- 23.300680	23.300680	23.300680	0.000000	0.000000	0.000000
For k = 4, applying strain of 1.00167
Changing box ...
  triclinic box = (-0.0194211 0 0) to (23.3201 23.3007 23.3007) with tilt (0 0 0)
WARNING: Resetting reneighboring criteria during minimization (../min.cpp:168)
Ewald initialization ...
  G vector (1/distance) = 0.365044
  estimated absolute RMS force accuracy = 1.94944e-05
  estimated relative force accuracy = 1.35381e-06
  KSpace vectors: actual max1d max3d = 2084 10 4630
                  kxmax kymax kzmax  = 10 10 10
Setting up cg style minimization ...
  Unit style: metal
Memory usage per processor = 4.56167 Mbytes
Step Temp E_pair E_mol TotEng Press 
      53           10   -18273.701            0     -18272.4   -9462.2167 
      66           10    -18273.72            0   -18272.418   -8318.2208 
Loop time of 0.181542 on 12 procs for 13 steps with 1008 atoms

100.2% CPU use with 12 MPI tasks x no OpenMP threads

Minimization stats:
  Stopping criterion = linesearch alpha is zero
  Energy initial, next-to-last, final = 
        -18273.7014885     -18273.7196395     -18273.7196395
  Force two-norm initial, final = 0.595971 0.0800506
  Force max component initial, final = 0.0515547 0.00667896
  Final line search alpha, max atom move = 1.90735e-06 1.27391e-08
  Iterations, force evaluations = 13 63

MPI task timing breakdown:
Section |  min time  |  avg time  |  max time  |%varavg| %total
---------------------------------------------------------------
Pair    | 0.064247   | 0.06892    | 0.072649   |   0.9 | 37.96
Kspace  | 0.10108    | 0.1029     | 0.10477    |   0.4 | 56.68
Neigh   | 0          | 0          | 0          |   0.0 |  0.00
Comm    | 0.0063608  | 0.0087156  | 0.012298   |   2.2 |  4.80
Output  | 0          | 0          | 0          |   0.0 |  0.00
Modify  | 0          | 0          | 0          |   0.0 |  0.00
Other   |            | 0.001006   |            |       |  0.55

Nlocal:    84 ave 87 max 79 min
Histogram: 1 1 1 0 0 1 2 1 3 2
Nghost:    2603.67 ave 2629 max 2580 min
Histogram: 3 1 1 1 0 1 1 0 2 2
Neighs:    18611.8 ave 19286 max 17469 min
Histogram: 2 1 0 0 0 1 2 1 3 2

Total # of neighbors = 223342
Ave neighs/atom = 221.569
Neighbor list builds = 0
Dangerous builds = 0
CR_UPDATE- 23.300680	23.300680	23.300680	0.000000	0.000000	0.000000
For k = 5, applying strain of 1.00333
Changing box ...
  triclinic box = (-0.0388306 0 0) to (23.3395 23.3007 23.3007) with tilt (0 0 0)
WARNING: Resetting reneighboring criteria during minimization (../min.cpp:168)
Ewald initialization ...
  G vector (1/distance) = 0.365032
  estimated absolute RMS force accuracy = 1.95788e-05
  estimated relative force accuracy = 1.35968e-06
  KSpace vectors: actual max1d max3d = 2084 10 4630
                  kxmax kymax kzmax  = 10 10 10
Setting up cg style minimization ...
  Unit style: metal
Memory usage per processor = 4.56167 Mbytes
Step Temp E_pair E_mol TotEng Press 
      66           10    -18273.45            0   -18272.148    -12910.58 
      86           10   -18273.522            0    -18272.22   -10549.638 
Loop time of 0.328214 on 12 procs for 20 steps with 1008 atoms

99.9% CPU use with 12 MPI tasks x no OpenMP threads

Minimization stats:
  Stopping criterion = linesearch alpha is zero
  Energy initial, next-to-last, final = 
        -18273.4497479     -18273.5217916     -18273.5217916
  Force two-norm initial, final = 1.18351 0.0962997
  Force max component initial, final = 0.102065 0.0136539
  Final line search alpha, max atom move = 9.53674e-07 1.30214e-08
  Iterations, force evaluations = 20 115

MPI task timing breakdown:
Section |  min time  |  avg time  |  max time  |%varavg| %total
---------------------------------------------------------------
Pair    | 0.11709    | 0.12486    | 0.1312     |   1.1 | 38.04
Kspace  | 0.1824     | 0.18603    | 0.1897     |   0.5 | 56.68
Neigh   | 0          | 0          | 0          |   0.0 |  0.00
Comm    | 0.011415   | 0.015638   | 0.022171   |   2.9 |  4.76
Output  | 0          | 0          | 0          |   0.0 |  0.00
Modify  | 0          | 0          | 0          |   0.0 |  0.00
Other   |            | 0.001691   |            |       |  0.52

Nlocal:    84 ave 87 max 79 min
Histogram: 1 1 1 0 0 1 2 1 3 2
Nghost:    2601.92 ave 2627 max 2580 min
Histogram: 3 1 1 1 0 1 1 1 2 1
Neighs:    18578.1 ave 19253 max 17424 min
Histogram: 1 1 1 0 0 1 2 1 3 2

Total # of neighbors = 222937
Ave neighs/atom = 221.168
Neighbor list builds = 0
Dangerous builds = 0
CR_UPDATE- 23.300680	23.300680	23.300680	0.000000	0.000000	0.000000
For k = 6, applying strain of 1.005
Changing box ...
  triclinic box = (-0.0582517 0 0) to (23.3589 23.3007 23.3007) with tilt (0 0 0)
WARNING: Resetting reneighboring criteria during minimization (../min.cpp:168)
Ewald initialization ...
  G vector (1/distance) = 0.365021
  estimated absolute RMS force accuracy = 1.96704e-05
  estimated relative force accuracy = 1.36604e-06
  KSpace vectors: actual max1d max3d = 2084 10 4630
                  kxmax kymax kzmax  = 10 10 10
Setting up cg style minimization ...
  Unit style: metal
Memory usage per processor = 4.56167 Mbytes
Step Temp E_pair E_mol TotEng Press 
      86           10   -18273.119            0   -18271.817   -16325.097 
     100           10   -18273.266            0   -18271.965    -12889.74 
     107           10   -18273.274            0   -18271.972   -12802.395 
Loop time of 0.239085 on 12 procs for 21 steps with 1008 atoms

99.8% CPU use with 12 MPI tasks x no OpenMP threads

Minimization stats:
  Stopping criterion = linesearch alpha is zero
  Energy initial, next-to-last, final = 
        -18273.1188543      -18273.273949      -18273.273949
  Force two-norm initial, final = 1.765 0.131064
  Force max component initial, final = 0.151667 0.0180862
  Final line search alpha, max atom move = 4.76837e-07 8.62418e-09
  Iterations, force evaluations = 21 83

MPI task timing breakdown:
Section |  min time  |  avg time  |  max time  |%varavg| %total
---------------------------------------------------------------
Pair    | 0.08469    | 0.090537   | 0.096062   |   1.0 | 37.87
Kspace  | 0.13331    | 0.1358     | 0.13889    |   0.5 | 56.80
Neigh   | 0          | 0          | 0          |   0.0 |  0.00
Comm    | 0.0083323  | 0.011381   | 0.016058   |   2.5 |  4.76
Output  | 2.5034e-05 | 2.6325e-05 | 3.2902e-05 |   0.0 |  0.01
Modify  | 0          | 0          | 0          |   0.0 |  0.00
Other   |            | 0.001344   |            |       |  0.56

Nlocal:    84 ave 87 max 79 min
Histogram: 1 1 1 0 0 1 2 1 3 2
Nghost:    2600.92 ave 2626 max 2580 min
Histogram: 3 1 0 2 0 2 0 1 2 1
Neighs:    18545.4 ave 19216 max 17390 min
Histogram: 1 1 1 0 0 1 2 1 3 2

Total # of neighbors = 222545
Ave neighs/atom = 220.779
Neighbor list builds = 0
Dangerous builds = 0
CR_UPDATE- 23.300680	23.300680	23.300680	0.000000	0.000000	0.000000
For k = 0, applying strain of 0.995
Changing box ...
  triclinic box = (0 0.0582517 0) to (23.3007 23.2424 23.3007) with tilt (0 0 0)
WARNING: Resetting reneighboring criteria during minimization (../min.cpp:168)
Ewald initialization ...
  G vector (1/distance) = 0.365089
  estimated absolute RMS force accuracy = 1.92191e-05
  estimated relative force accuracy = 1.33469e-06
  KSpace vectors: actual max1d max3d = 2088 10 4630
                  kxmax kymax kzmax  = 10 10 10
Setting up cg style minimization ...
  Unit style: metal
Memory usage per processor = 4.56167 Mbytes
Step Temp E_pair E_mol TotEng Press 
     107           10   -18273.796            0   -18272.495    4717.9872 
     121           10   -18273.935            0   -18272.633    1252.3752 
Loop time of 0.205489 on 12 procs for 14 steps with 1008 atoms

100.0% CPU use with 12 MPI tasks x no OpenMP threads

Minimization stats:
  Stopping criterion = linesearch alpha is zero
  Energy initial, next-to-last, final = 
        -18273.7961788      -18273.935108      -18273.935108
  Force two-norm initial, final = 1.77257 0.212063
  Force max component initial, final = 0.172871 0.0200879
  Final line search alpha, max atom move = 2.38419e-07 4.78932e-09
  Iterations, force evaluations = 14 71

MPI task timing breakdown:
Section |  min time  |  avg time  |  max time  |%varavg| %total
---------------------------------------------------------------
Pair    | 0.072653   | 0.078229   | 0.08276    |   0.9 | 38.07
Kspace  | 0.11448    | 0.11639    | 0.11811    |   0.3 | 56.64
Neigh   | 0          | 0          | 0          |   0.0 |  0.00
Comm    | 0.0071461  | 0.0097652  | 0.013766   |   2.3 |  4.75
Output  | 0          | 0          | 0          |   0.0 |  0.00
Modify  | 0          | 0          | 0          |   0.0 |  0.00
Other   |            | 0.001107   |            |       |  0.54

Nlocal:    84 ave 87 max 79 min
Histogram: 1 1 1 0 0 1 2 1 3 2
Nghost:    2618.33 ave 2641 max 2597 min
Histogram: 2 0 2 2 1 0 1 2 0 2
Neighs:    18735.4 ave 19403 max 17591 min
Histogram: 2 1 0 0 0 1 2 1 2 3

Total # of neighbors = 224825
Ave neighs/atom = 223.041
Neighbor list builds = 0
Dangerous builds = 0
CR_UPDATE- 23.300680	23.300680	23.300680	0.000000	0.000000	0.000000
For k = 1, applying strain of 0.996667
Changing box ...
  triclinic box = (0 0.0388306 0) to (23.3007 23.2618 23.3007) with tilt (0 0 0)
WARNING: Resetting reneighboring criteria during minimization (../min.cpp:168)
Ewald initialization ...
  G vector (1/distance) = 0.365078
  estimated absolute RMS force accuracy = 1.92793e-05
  estimated relative force accuracy = 1.33888e-06
  KSpace vectors: actual max1d max3d = 2084 10 4630
                  kxmax kymax kzmax  = 10 10 10
Setting up cg style minimization ...
  Unit style: metal
Memory usage per processor = 4.56167 Mbytes
Step Temp E_pair E_mol TotEng Press 
     121           10   -18273.907            0   -18272.605    1114.7882 
     143           10   -18273.971            0   -18272.669   -1261.6642 
Loop time of 0.233254 on 12 procs for 22 steps with 1008 atoms

100.1% CPU use with 12 MPI tasks x no OpenMP threads

Minimization stats:
  Stopping criterion = linesearch alpha is zero
  Energy initial, next-to-last, final = 
         -18273.906702     -18273.9710746     -18273.9710746
  Force two-norm initial, final = 1.17447 0.0653262
  Force max component initial, final = 0.114201 0.00524471
  Final line search alpha, max atom move = 1.90735e-06 1.00035e-08
  Iterations, force evaluations = 22 81

MPI task timing breakdown:
Section |  min time  |  avg time  |  max time  |%varavg| %total
---------------------------------------------------------------
Pair    | 0.082752   | 0.088564   | 0.093753   |   1.0 | 37.97
Kspace  | 0.12958    | 0.1321     | 0.13403    |   0.4 | 56.63
Neigh   | 0          | 0          | 0          |   0.0 |  0.00
Comm    | 0.008265   | 0.011269   | 0.015818   |   2.5 |  4.83
Output  | 0          | 0          | 0          |   0.0 |  0.00
Modify  | 0          | 0          | 0          |   0.0 |  0.00
Other   |            | 0.001325   |            |       |  0.57

Nlocal:    84 ave 87 max 79 min
Histogram: 1 1 1 0 0 1 2 1 3 2
Nghost:    2615.33 ave 2639 max 2593 min
Histogram: 2 0 2 2 1 0 1 1 2 1
Neighs:    18703.5 ave 19374 max 17560 min
Histogram: 2 1 0 0 0 1 2 1 2 3

Total # of neighbors = 224442
Ave neighs/atom = 222.661
Neighbor list builds = 0
Dangerous builds = 0
CR_UPDATE- 23.300680	23.300680	23.300680	0.000000	0.000000	0.000000
For k = 2, applying strain of 0.998333
Changing box ...
  triclinic box = (0 0.0194211 0) to (23.3007 23.2813 23.3007) with tilt (0 0 0)
WARNING: Resetting reneighboring criteria during minimization (../min.cpp:168)
Ewald initialization ...
  G vector (1/distance) = 0.365066
  estimated absolute RMS force accuracy = 1.9345e-05
  estimated relative force accuracy = 1.34344e-06
  KSpace vectors: actual max1d max3d = 2084 10 4630
                  kxmax kymax kzmax  = 10 10 10
Setting up cg style minimization ...
  Unit style: metal
Memory usage per processor = 4.56167 Mbytes
Step Temp E_pair E_mol TotEng Press 
     143           10   -18273.932            0   -18272.631   -2448.1851 
     150           10   -18273.946            0   -18272.644   -3480.0162 
     155           10   -18273.947            0   -18272.646   -3561.5886 
Loop time of 0.182432 on 12 procs for 12 steps with 1008 atoms

99.9% CPU use with 12 MPI tasks x no OpenMP threads

Minimization stats:
  Stopping criterion = linesearch alpha is zero
  Energy initial, next-to-last, final = 
        -18273.9321772     -18273.9474922     -18273.9474922
  Force two-norm initial, final = 0.583439 0.08823
  Force max component initial, final = 0.0566038 0.00874359
  Final line search alpha, max atom move = 9.53674e-07 8.33854e-09
  Iterations, force evaluations = 12 63

MPI task timing breakdown:
Section |  min time  |  avg time  |  max time  |%varavg| %total
---------------------------------------------------------------
Pair    | 0.06455    | 0.06944    | 0.072711   |   0.8 | 38.06
Kspace  | 0.10151    | 0.10313    | 0.10434    |   0.3 | 56.53
Neigh   | 0          | 0          | 0          |   0.0 |  0.00
Comm    | 0.0065019  | 0.0088232  | 0.012414   |   2.2 |  4.84
Output  | 2.3842e-05 | 2.4517e-05 | 3.1948e-05 |   0.0 |  0.01
Modify  | 0          | 0          | 0          |   0.0 |  0.00
Other   |            | 0.001016   |            |       |  0.56

Nlocal:    84 ave 87 max 79 min
Histogram: 1 1 1 0 0 1 2 1 3 2
Nghost:    2611.33 ave 2635 max 2588 min
Histogram: 2 0 2 2 1 0 1 0 2 2
Neighs:    18672 ave 19350 max 17528 min
Histogram: 2 1 0 0 0 1 2 1 3 2

Total # of neighbors = 224064
Ave neighs/atom = 222.286
Neighbor list builds = 0
Dangerous builds = 0
CR_UPDATE- 23.300680	23.300680	23.300680	0.000000	0.000000	0.000000
For k = 3, applying strain of 1
Changing box ...
  triclinic box = (0 0 0) to (23.3007 23.3007 23.3007) with tilt (0 0 0)
WARNING: Resetting reneighboring criteria during minimization (../min.cpp:168)
Ewald initialization ...
  G vector (1/distance) = 0.365055
  estimated absolute RMS force accuracy = 1.94166e-05
  estimated relative force accuracy = 1.34841e-06
  KSpace vectors: actual max1d max3d = 2084 10 4630
                  kxmax kymax kzmax  = 10 10 10
Setting up cg style minimization ...
  Unit style: metal
Memory usage per processor = 4.56167 Mbytes
Step Temp E_pair E_mol TotEng Press 
     155           10   -18273.868            0   -18272.567   -5974.1648 
     156           10   -18273.868            0   -18272.567   -5974.1648 
Loop time of 0.0679281 on 12 procs for 1 steps with 1008 atoms

99.8% CPU use with 12 MPI tasks x no OpenMP threads

Minimization stats:
  Stopping criterion = linesearch alpha is zero
  Energy initial, next-to-last, final = 
        -18273.8684535     -18273.8684535     -18273.8684535
  Force two-norm initial, final = 0.00473568 0.00473568
  Force max component initial, final = 0.000368722 0.000368722
  Final line search alpha, max atom move = 0.000488281 1.8004e-07
  Iterations, force evaluations = 1 23

MPI task timing breakdown:
Section |  min time  |  avg time  |  max time  |%varavg| %total
---------------------------------------------------------------
Pair    | 0.024455   | 0.025895   | 0.027116   |   0.5 | 38.12
Kspace  | 0.037645   | 0.038412   | 0.038833   |   0.2 | 56.55
Neigh   | 0          | 0          | 0          |   0.0 |  0.00
Comm    | 0.0024171  | 0.0032874  | 0.0046468  |   1.3 |  4.84
Output  | 0          | 0          | 0          |   0.0 |  0.00
Modify  | 0          | 0          | 0          |   0.0 |  0.00
Other   |            | 0.000334   |            |       |  0.49

Nlocal:    84 ave 87 max 79 min
Histogram: 1 1 1 0 0 1 2 1 3 2
Nghost:    2607.33 ave 2630 max 2584 min
Histogram: 2 1 0 3 0 1 1 0 2 2
Neighs:    18641.8 ave 19314 max 17494 min
Histogram: 2 1 0 0 0 1 2 1 2 3

Total # of neighbors = 223701
Ave neighs/atom = 221.926
Neighbor list builds = 0
Dangerous builds = 0
CR_UPDATE- 23.300680	23.300680	23.300680	0.000000	0.000000	0.000000
For k = 4, applying strain of 1.00167
Changing box ...
  triclinic box = (0 -0.0194211 0) to (23.3007 23.3201 23.3007) with tilt (0 0 0)
WARNING: Resetting reneighboring criteria during minimization (../min.cpp:168)
Ewald initialization ...
  G vector (1/distance) = 0.365044
  estimated absolute RMS force accuracy = 1.94944e-05
  estimated relative force accuracy = 1.35381e-06
  KSpace vectors: actual max1d max3d = 2084 10 4630
                  kxmax kymax kzmax  = 10 10 10
Setting up cg style minimization ...
  Unit style: metal
Memory usage per processor = 4.56167 Mbytes
Step Temp E_pair E_mol TotEng Press 
     156           10   -18273.727            0   -18272.425   -9464.0273 
     166           10   -18273.742            0    -18272.44   -8372.1128 
Loop time of 0.172588 on 12 procs for 10 steps with 1008 atoms

99.9% CPU use with 12 MPI tasks x no OpenMP threads

Minimization stats:
  Stopping criterion = linesearch alpha is zero
  Energy initial, next-to-last, final = 
        -18273.7270657     -18273.7417483     -18273.7417483
  Force two-norm initial, final = 0.579659 0.112062
  Force max component initial, final = 0.0555163 0.0123683
  Final line search alpha, max atom move = 9.53674e-07 1.17953e-08
  Iterations, force evaluations = 10 59

MPI task timing breakdown:
Section |  min time  |  avg time  |  max time  |%varavg| %total
---------------------------------------------------------------
Pair    | 0.061469   | 0.065465   | 0.06947    |   0.8 | 37.93
Kspace  | 0.095745   | 0.097685   | 0.099661   |   0.4 | 56.60
Neigh   | 0          | 0          | 0          |   0.0 |  0.00
Comm    | 0.0062759  | 0.0084942  | 0.011795   |   2.1 |  4.92
Output  | 0          | 0          | 0          |   0.0 |  0.00
Modify  | 0          | 0          | 0          |   0.0 |  0.00
Other   |            | 0.0009446  |            |       |  0.55

Nlocal:    84 ave 87 max 79 min
Histogram: 1 1 1 0 0 1 2 1 3 2
Nghost:    2603.83 ave 2625 max 2579 min
Histogram: 1 1 1 2 2 0 1 0 0 4
Neighs:    18610.3 ave 19284 max 17468 min
Histogram: 2 1 0 0 0 1 2 1 2 3

Total # of neighbors = 223324
Ave neighs/atom = 221.552
Neighbor list builds = 0
Dangerous builds = 0
CR_UPDATE- 23.300680	23.300680	23.300680	0.000000	0.000000	0.000000
For k = 5, applying strain of 1.00333
Changing box ...
  triclinic box = (0 -0.0388306 0) to (23.3007 23.3395 23.3007) with tilt (0 0 0)
WARNING: Resetting reneighboring criteria during minimization (../min.cpp:168)
Ewald initialization ...
  G vector (1/distance) = 0.365032
  estimated absolute RMS force accuracy = 1.95788e-05
  estimated relative force accuracy = 1.35968e-06
  KSpace vectors: actual max1d max3d = 2084 10 4630
                  kxmax kymax kzmax  = 10 10 10
Setting up cg style minimization ...
  Unit style: metal
Memory usage per processor = 4.56167 Mbytes
Step Temp E_pair E_mol TotEng Press 
     166           10   -18273.506            0   -18272.205   -12915.505 
     185           10    -18273.57            0   -18272.269    -10603.42 
Loop time of 0.226688 on 12 procs for 19 steps with 1008 atoms

100.1% CPU use with 12 MPI tasks x no OpenMP threads

Minimization stats:
  Stopping criterion = linesearch alpha is zero
  Energy initial, next-to-last, final = 
         -18273.506465     -18273.5704494     -18273.5704494
  Force two-norm initial, final = 1.15124 0.0891198
  Force max component initial, final = 0.110072 0.0120524
  Final line search alpha, max atom move = 9.53674e-07 1.1494e-08
  Iterations, force evaluations = 19 77

MPI task timing breakdown:
Section |  min time  |  avg time  |  max time  |%varavg| %total
---------------------------------------------------------------
Pair    | 0.0805     | 0.085325   | 0.089938   |   0.9 | 37.64
Kspace  | 0.12569    | 0.12827    | 0.13057    |   0.4 | 56.59
Neigh   | 0          | 0          | 0          |   0.0 |  0.00
Comm    | 0.0088949  | 0.011899   | 0.016528   |   2.3 |  5.25
Output  | 0          | 0          | 0          |   0.0 |  0.00
Modify  | 0          | 0          | 0          |   0.0 |  0.00
Other   |            | 0.001191   |            |       |  0.53

Nlocal:    84 ave 87 max 79 min
Histogram: 1 1 1 0 0 1 2 1 3 2
Nghost:    2598.67 ave 2622 max 2569 min
Histogram: 1 0 2 1 1 2 0 2 1 2
Neighs:    18577.2 ave 19249 max 17427 min
Histogram: 1 1 1 0 0 1 2 1 2 3

Total # of neighbors = 222927
Ave neighs/atom = 221.158
Neighbor list builds = 0
Dangerous builds = 0
CR_UPDATE- 23.300680	23.300680	23.300680	0.000000	0.000000	0.000000
For k = 6, applying strain of 1.005
Changing box ...
  triclinic box = (0 -0.0582517 0) to (23.3007 23.3589 23.3007) with tilt (0 0 0)
WARNING: Resetting reneighboring criteria during minimization (../min.cpp:168)
Ewald initialization ...
  G vector (1/distance) = 0.365021
  estimated absolute RMS force accuracy = 1.96704e-05
  estimated relative force accuracy = 1.36604e-06
  KSpace vectors: actual max1d max3d = 2084 10 4630
                  kxmax kymax kzmax  = 10 10 10
Setting up cg style minimization ...
  Unit style: metal
Memory usage per processor = 4.56167 Mbytes
Step Temp E_pair E_mol TotEng Press 
     185           10   -18273.205            0   -18271.903   -16332.465 
     200           10    -18273.34            0   -18272.039   -12928.587 
     204           10   -18273.342            0    -18272.04   -12891.125 
Loop time of 0.225505 on 12 procs for 19 steps with 1008 atoms

99.7% CPU use with 12 MPI tasks x no OpenMP threads

Minimization stats:
  Stopping criterion = linesearch alpha is zero
  Energy initial, next-to-last, final = 
        -18273.2048132     -18273.3417979     -18273.3417979
  Force two-norm initial, final = 1.71686 0.131565
  Force max component initial, final = 0.163667 0.0170806
  Final line search alpha, max atom move = 4.76837e-07 8.14465e-09
  Iterations, force evaluations = 19 79

MPI task timing breakdown:
Section |  min time  |  avg time  |  max time  |%varavg| %total
---------------------------------------------------------------
Pair    | 0.079813   | 0.085583   | 0.089847   |   1.0 | 37.95
Kspace  | 0.12523    | 0.12816    | 0.13035    |   0.5 | 56.83
Neigh   | 0          | 0          | 0          |   0.0 |  0.00
Comm    | 0.0076032  | 0.010541   | 0.01498    |   2.5 |  4.67
Output  | 2.408e-05  | 2.561e-05  | 3.0994e-05 |   0.0 |  0.01
Modify  | 0          | 0          | 0          |   0.0 |  0.00
Other   |            | 0.001192   |            |       |  0.53

Nlocal:    84 ave 87 max 79 min
Histogram: 1 1 1 0 0 1 2 1 3 2
Nghost:    2596.67 ave 2619 max 2569 min
Histogram: 1 1 1 1 2 1 1 0 1 3
Neighs:    18543.8 ave 19203 max 17395 min
Histogram: 1 1 1 0 0 1 2 1 2 3

Total # of neighbors = 222526
Ave neighs/atom = 220.76
Neighbor list builds = 0
Dangerous builds = 0
CR_UPDATE- 23.300680	23.300680	23.300680	0.000000	0.000000	0.000000
For k = 0, applying strain of 0.995
Changing box ...
  triclinic box = (0 0 0.0582517) to (23.3007 23.3007 23.2424) with tilt (0 0 0)
WARNING: Resetting reneighboring criteria during minimization (../min.cpp:168)
Ewald initialization ...
  G vector (1/distance) = 0.365089
  estimated absolute RMS force accuracy = 1.92191e-05
  estimated relative force accuracy = 1.33469e-06
  KSpace vectors: actual max1d max3d = 2088 10 4630
                  kxmax kymax kzmax  = 10 10 10
Setting up cg style minimization ...
  Unit style: metal
Memory usage per processor = 4.56167 Mbytes
Step Temp E_pair E_mol TotEng Press 
     204           10   -18273.815            0   -18272.514    4590.5313 
     223           10   -18273.968            0   -18272.667    788.02675 
Loop time of 0.351062 on 12 procs for 19 steps with 1008 atoms

99.9% CPU use with 12 MPI tasks x no OpenMP threads

Minimization stats:
  Stopping criterion = linesearch alpha is zero
  Energy initial, next-to-last, final = 
        -18273.8153236     -18273.9682558     -18273.9682558
  Force two-norm initial, final = 1.881 0.151843
  Force max component initial, final = 0.155874 0.014842
  Final line search alpha, max atom move = 4.76837e-07 7.07722e-09
  Iterations, force evaluations = 19 121

MPI task timing breakdown:
Section |  min time  |  avg time  |  max time  |%varavg| %total
---------------------------------------------------------------
Pair    | 0.12443    | 0.13383    | 0.14196    |   1.2 | 38.12
Kspace  | 0.1949     | 0.19843    | 0.20177    |   0.5 | 56.52
Neigh   | 0          | 0          | 0          |   0.0 |  0.00
Comm    | 0.012451   | 0.017019   | 0.023751   |   3.0 |  4.85
Output  | 0          | 0          | 0          |   0.0 |  0.00
Modify  | 0          | 0          | 0          |   0.0 |  0.00
Other   |            | 0.00178    |            |       |  0.51

Nlocal:    84 ave 87 max 79 min
Histogram: 1 1 1 0 0 1 2 1 3 2
Nghost:    2610.33 ave 2632 max 2588 min
Histogram: 1 2 2 1 0 1 1 0 1 3
Neighs:    18734.2 ave 19409 max 17595 min
Histogram: 2 1 0 0 0 1 2 1 2 3

Total # of neighbors = 224811
Ave neighs/atom = 223.027
Neighbor list builds = 0
Dangerous builds = 0
CR_UPDATE- 23.300680	23.300680	23.300680	0.000000	0.000000	0.000000
For k = 1, applying strain of 0.996667
Changing box ...
  triclinic box = (0 0 0.0388306) to (23.3007 23.3007 23.2618) with tilt (0 0 0)
WARNING: Resetting reneighboring criteria during minimization (../min.cpp:168)
Ewald initialization ...
  G vector (1/distance) = 0.365078
  estimated absolute RMS force accuracy = 1.92793e-05
  estimated relative force accuracy = 1.33888e-06
  KSpace vectors: actual max1d max3d = 2084 10 4630
                  kxmax kymax kzmax  = 10 10 10
Setting up cg style minimization ...
  Unit style: metal
Memory usage per processor = 4.56167 Mbytes
Step Temp E_pair E_mol TotEng Press 
     223           10   -18273.917            0   -18272.615       1031.1 
     242           10   -18273.985            0   -18272.683   -1436.7402 
Loop time of 0.351761 on 12 procs for 19 steps with 1008 atoms

100.0% CPU use with 12 MPI tasks x no OpenMP threads

Minimization stats:
  Stopping criterion = linesearch alpha is zero
  Energy initial, next-to-last, final = 
        -18273.9167794     -18273.9848808     -18273.9848808
  Force two-norm initial, final = 1.24631 0.110952
  Force max component initial, final = 0.102975 0.0142055
  Final line search alpha, max atom move = 9.53674e-07 1.35474e-08
  Iterations, force evaluations = 19 119

MPI task timing breakdown:
Section |  min time  |  avg time  |  max time  |%varavg| %total
---------------------------------------------------------------
Pair    | 0.12409    | 0.13271    | 0.13991    |   1.1 | 37.73
Kspace  | 0.19479    | 0.19861    | 0.20158    |   0.5 | 56.46
Neigh   | 0          | 0          | 0          |   0.0 |  0.00
Comm    | 0.013913   | 0.018596   | 0.025251   |   2.8 |  5.29
Output  | 0          | 0          | 0          |   0.0 |  0.00
Modify  | 0          | 0          | 0          |   0.0 |  0.00
Other   |            | 0.001836   |            |       |  0.52

Nlocal:    84 ave 87 max 79 min
Histogram: 1 1 1 0 0 1 2 1 3 2
Nghost:    2609.83 ave 2632 max 2588 min
Histogram: 1 2 2 1 0 2 0 0 1 3
Neighs:    18704.5 ave 19378 max 17563 min
Histogram: 2 1 0 0 0 1 2 1 3 2

Total # of neighbors = 224454
Ave neighs/atom = 222.673
Neighbor list builds = 0
Dangerous builds = 0
CR_UPDATE- 23.300680	23.300680	23.300680	0.000000	0.000000	0.000000
For k = 2, applying strain of 0.998333
Changing box ...
  triclinic box = (0 0 0.0194211) to (23.3007 23.3007 23.2813) with tilt (0 0 0)
WARNING: Resetting reneighboring criteria during minimization (../min.cpp:168)
Ewald initialization ...
  G vector (1/distance) = 0.365066
  estimated absolute RMS force accuracy = 1.9345e-05
  estimated relative force accuracy = 1.34344e-06
  KSpace vectors: actual max1d max3d = 2084 10 4630
                  kxmax kymax kzmax  = 10 10 10
Setting up cg style minimization ...
  Unit style: metal
Memory usage per processor = 4.56167 Mbytes
Step Temp E_pair E_mol TotEng Press 
     242           10   -18273.934            0   -18272.633   -2489.0062 
     250           10    -18273.95            0   -18272.648   -3595.4854 
     254           10   -18273.951            0    -18272.65   -3658.2065 
Loop time of 0.278554 on 12 procs for 12 steps with 1008 atoms

100.0% CPU use with 12 MPI tasks x no OpenMP threads

Minimization stats:
  Stopping criterion = linesearch alpha is zero
  Energy initial, next-to-last, final = 
        -18273.9343715      -18273.951252      -18273.951252
  Force two-norm initial, final = 0.619142 0.0967913
  Force max component initial, final = 0.0510041 0.0103376
  Final line search alpha, max atom move = 9.53674e-07 9.85868e-09
  Iterations, force evaluations = 12 95

MPI task timing breakdown:
Section |  min time  |  avg time  |  max time  |%varavg| %total
---------------------------------------------------------------
Pair    | 0.098401   | 0.10549    | 0.11193    |   1.1 | 37.87
Kspace  | 0.15494    | 0.15761    | 0.15981    |   0.3 | 56.58
Neigh   | 0          | 0          | 0          |   0.0 |  0.00
Comm    | 0.010369   | 0.014116   | 0.019382   |   2.6 |  5.07
Output  | 2.3842e-05 | 2.4537e-05 | 3.0994e-05 |   0.0 |  0.01
Modify  | 0          | 0          | 0          |   0.0 |  0.00
Other   |            | 0.001317   |            |       |  0.47

Nlocal:    84 ave 87 max 79 min
Histogram: 1 1 1 0 0 1 2 1 3 2
Nghost:    2609.08 ave 2632 max 2586 min
Histogram: 2 1 1 2 0 1 1 0 1 3
Neighs:    18673.8 ave 19347 max 17530 min
Histogram: 2 1 0 0 0 1 2 1 3 2

Total # of neighbors = 224085
Ave neighs/atom = 222.307
Neighbor list builds = 0
Dangerous builds = 0
CR_UPDATE- 23.300680	23.300680	23.300680	0.000000	0.000000	0.000000
For k = 3, applying strain of 1
Changing box ...
  triclinic box = (0 0 0) to (23.3007 23.3007 23.3007) with tilt (0 0 0)
WARNING: Resetting reneighboring criteria during minimization (../min.cpp:168)
Ewald initialization ...
  G vector (1/distance) = 0.365055
  estimated absolute RMS force accuracy = 1.94166e-05
  estimated relative force accuracy = 1.34841e-06
  KSpace vectors: actual max1d max3d = 2084 10 4630
                  kxmax kymax kzmax  = 10 10 10
Setting up cg style minimization ...
  Unit style: metal
Memory usage per processor = 4.56167 Mbytes
Step Temp E_pair E_mol TotEng Press 
     254           10   -18273.868            0   -18272.567   -5974.1648 
     255           10   -18273.868            0   -18272.567   -5974.1648 
Loop time of 0.0682367 on 12 procs for 1 steps with 1008 atoms

100.4% CPU use with 12 MPI tasks x no OpenMP threads

Minimization stats:
  Stopping criterion = linesearch alpha is zero
  Energy initial, next-to-last, final = 
        -18273.8684535     -18273.8684535     -18273.8684535
  Force two-norm initial, final = 0.00473568 0.00473568
  Force max component initial, final = 0.000368722 0.000368722
  Final line search alpha, max atom move = 0.000488281 1.8004e-07
  Iterations, force evaluations = 1 23

MPI task timing breakdown:
Section |  min time  |  avg time  |  max time  |%varavg| %total
---------------------------------------------------------------
Pair    | 0.024578   | 0.025956   | 0.027416   |   0.5 | 38.04
Kspace  | 0.037914   | 0.038694   | 0.039535   |   0.2 | 56.71
Neigh   | 0          | 0          | 0          |   0.0 |  0.00
Comm    | 0.0023675  | 0.0032687  | 0.0046139  |   1.3 |  4.79
Output  | 0          | 0          | 0          |   0.0 |  0.00
Modify  | 0          | 0          | 0          |   0.0 |  0.00
Other   |            | 0.0003176  |            |       |  0.47

Nlocal:    84 ave 87 max 79 min
Histogram: 1 1 1 0 0 1 2 1 3 2
Nghost:    2607.33 ave 2630 max 2584 min
Histogram: 2 1 0 3 0 1 1 0 2 2
Neighs:    18641.8 ave 19314 max 17494 min
Histogram: 2 1 0 0 0 1 2 1 2 3

Total # of neighbors = 223701
Ave neighs/atom = 221.926
Neighbor list builds = 0
Dangerous builds = 0
CR_UPDATE- 23.300680	23.300680	23.300680	0.000000	0.000000	0.000000
For k = 4, applying strain of 1.00167
Changing box ...
  triclinic box = (0 0 -0.0194211) to (23.3007 23.3007 23.3201) with tilt (0 0 0)
WARNING: Resetting reneighboring criteria during minimization (../min.cpp:168)
Ewald initialization ...
  G vector (1/distance) = 0.365044
  estimated absolute RMS force accuracy = 1.94944e-05
  estimated relative force accuracy = 1.35381e-06
  KSpace vectors: actual max1d max3d = 2084 10 4630
                  kxmax kymax kzmax  = 10 10 10
Setting up cg style minimization ...
  Unit style: metal
Memory usage per processor = 4.56167 Mbytes
Step Temp E_pair E_mol TotEng Press 
     255           10   -18273.727            0   -18272.425   -9424.3004 
     265           10   -18273.742            0    -18272.44   -8282.3617 
Loop time of 0.172045 on 12 procs for 10 steps with 1008 atoms

99.8% CPU use with 12 MPI tasks x no OpenMP threads

Minimization stats:
  Stopping criterion = linesearch alpha is zero
  Energy initial, next-to-last, final = 
        -18273.7265953     -18273.7419393     -18273.7419393
  Force two-norm initial, final = 0.615147 0.112267
  Force max component initial, final = 0.0502998 0.0127216
  Final line search alpha, max atom move = 9.53674e-07 1.21322e-08
  Iterations, force evaluations = 10 59

MPI task timing breakdown:
Section |  min time  |  avg time  |  max time  |%varavg| %total
---------------------------------------------------------------
Pair    | 0.060112   | 0.065165   | 0.069005   |   0.9 | 37.88
Kspace  | 0.095346   | 0.097474   | 0.098995   |   0.3 | 56.66
Neigh   | 0          | 0          | 0          |   0.0 |  0.00
Comm    | 0.0062463  | 0.0084855  | 0.01192    |   2.1 |  4.93
Output  | 0          | 0          | 0          |   0.0 |  0.00
Modify  | 0          | 0          | 0          |   0.0 |  0.00
Other   |            | 0.0009211  |            |       |  0.54

Nlocal:    84 ave 87 max 79 min
Histogram: 1 1 1 0 0 1 2 1 3 2
Nghost:    2600.58 ave 2626 max 2574 min
Histogram: 2 1 1 1 1 1 1 1 1 2
Neighs:    18609.7 ave 19288 max 17461 min
Histogram: 1 1 1 0 0 1 2 1 2 3

Total # of neighbors = 223316
Ave neighs/atom = 221.544
Neighbor list builds = 0
Dangerous builds = 0
CR_UPDATE- 23.300680	23.300680	23.300680	0.000000	0.000000	0.000000
For k = 5, applying strain of 1.00333
Changing box ...
  triclinic box = (0 0 -0.0388306) to (23.3007 23.3007 23.3395) with tilt (0 0 0)
WARNING: Resetting reneighboring criteria during minimization (../min.cpp:168)
Ewald initialization ...
  G vector (1/distance) = 0.365032
  estimated absolute RMS force accuracy = 1.95788e-05
  estimated relative force accuracy = 1.35968e-06
  KSpace vectors: actual max1d max3d = 2084 10 4630
                  kxmax kymax kzmax  = 10 10 10
Setting up cg style minimization ...
  Unit style: metal
Memory usage per processor = 4.56167 Mbytes
Step Temp E_pair E_mol TotEng Press 
     265           10   -18273.501            0   -18272.199   -12835.417 
     280           10   -18273.567            0   -18272.266   -10435.967 
Loop time of 0.21051 on 12 procs for 15 steps with 1008 atoms

99.8% CPU use with 12 MPI tasks x no OpenMP threads

Minimization stats:
  Stopping criterion = linesearch alpha is zero
  Energy initial, next-to-last, final = 
        -18273.5008751     -18273.5673764     -18273.5673764
  Force two-norm initial, final = 1.22173 0.136987
  Force max component initial, final = 0.0996019 0.0131373
  Final line search alpha, max atom move = 4.76837e-07 6.26434e-09
  Iterations, force evaluations = 15 71

MPI task timing breakdown:
Section |  min time  |  avg time  |  max time  |%varavg| %total
---------------------------------------------------------------
Pair    | 0.073115   | 0.078708   | 0.083339   |   1.0 | 37.39
Kspace  | 0.11742    | 0.11966    | 0.12148    |   0.3 | 56.84
Neigh   | 0          | 0          | 0          |   0.0 |  0.00
Comm    | 0.0078719  | 0.011066   | 0.015159   |   2.1 |  5.26
Output  | 0          | 0          | 0          |   0.0 |  0.00
Modify  | 0          | 0          | 0          |   0.0 |  0.00
Other   |            | 0.001081   |            |       |  0.51

Nlocal:    84 ave 87 max 79 min
Histogram: 1 1 1 0 0 1 2 1 3 2
Nghost:    2596.83 ave 2621 max 2570 min
Histogram: 1 2 1 2 0 0 2 0 1 3
Neighs:    18579 ave 19257 max 17438 min
Histogram: 2 1 0 0 0 1 2 1 3 2

Total # of neighbors = 222948
Ave neighs/atom = 221.179
Neighbor list builds = 0
Dangerous builds = 0
CR_UPDATE- 23.300680	23.300680	23.300680	0.000000	0.000000	0.000000
For k = 6, applying strain of 1.005
Changing box ...
  triclinic box = (0 0 -0.0582517) to (23.3007 23.3007 23.3589) with tilt (0 0 0)
WARNING: Resetting reneighboring criteria during minimization (../min.cpp:168)
Ewald initialization ...
  G vector (1/distance) = 0.365021
  estimated absolute RMS force accuracy = 1.96704e-05
  estimated relative force accuracy = 1.36604e-06
  KSpace vectors: actual max1d max3d = 2084 10 4630
                  kxmax kymax kzmax  = 10 10 10
Setting up cg style minimization ...
  Unit style: metal
Memory usage per processor = 4.56167 Mbytes
Step Temp E_pair E_mol TotEng Press 
     280           10   -18273.193            0   -18271.891   -16212.426 
     300           10   -18273.345            0   -18272.044   -12532.045 
     306           10   -18273.346            0   -18272.045   -12499.461 
Loop time of 0.361815 on 12 procs for 26 steps with 1008 atoms

99.9% CPU use with 12 MPI tasks x no OpenMP threads

Minimization stats:
  Stopping criterion = linesearch alpha is zero
  Energy initial, next-to-last, final = 
        -18273.1931415     -18273.3463332     -18273.3463332
  Force two-norm initial, final = 1.82206 0.0750261
  Force max component initial, final = 0.148088 0.0062679
  Final line search alpha, max atom move = 1.90735e-06 1.19551e-08
  Iterations, force evaluations = 26 125

MPI task timing breakdown:
Section |  min time  |  avg time  |  max time  |%varavg| %total
---------------------------------------------------------------
Pair    | 0.12675    | 0.13639    | 0.14393    |   1.2 | 37.70
Kspace  | 0.20235    | 0.20529    | 0.2084     |   0.4 | 56.74
Neigh   | 0          | 0          | 0          |   0.0 |  0.00
Comm    | 0.013213   | 0.018222   | 0.024972   |   2.9 |  5.04
Output  | 2.3127e-05 | 2.4259e-05 | 3.0041e-05 |   0.0 |  0.01
Modify  | 0          | 0          | 0          |   0.0 |  0.00
Other   |            | 0.00189    |            |       |  0.52

Nlocal:    84 ave 87 max 79 min
Histogram: 1 1 1 0 0 1 2 1 3 2
Nghost:    2594.58 ave 2619 max 2568 min
Histogram: 1 1 2 2 0 0 2 0 1 3
Neighs:    18545.2 ave 19222 max 17404 min
Histogram: 2 1 0 0 0 1 2 1 3 2

Total # of neighbors = 222542
Ave neighs/atom = 220.776
Neighbor list builds = 0
Dangerous builds = 0
CR_UPDATE- 23.300680	23.300680	23.300680	0.000000	0.000000	0.000000
For k = 0, applying strain of 0.995
Changing box ...
  triclinic box = (0 0 0) to (23.3007 23.3007 23.3007) with tilt (-0.116503 0 0)
WARNING: Resetting reneighboring criteria during minimization (../min.cpp:168)
Ewald initialization ...
  G vector (1/distance) = 0.365055
  estimated absolute RMS force accuracy = 1.94166e-05
  estimated relative force accuracy = 1.34841e-06
  KSpace vectors: actual max1d max3d = 2079 10 4630
                  kxmax kymax kzmax  = 10 10 10
Setting up cg style minimization ...
  Unit style: metal
Memory usage per processor = 4.56167 Mbytes
Step Temp E_pair E_mol TotEng Press 
     306           10   -18273.689            0   -18272.387   -5935.0537 
     321           10   -18273.747            0   -18272.445    -5888.369 
Loop time of 0.205349 on 12 procs for 15 steps with 1008 atoms

100.1% CPU use with 12 MPI tasks x no OpenMP threads

Minimization stats:
  Stopping criterion = linesearch alpha is zero
  Energy initial, next-to-last, final = 
        -18273.6887909     -18273.7471449     -18273.7471449
  Force two-norm initial, final = 1.22812 0.126801
  Force max component initial, final = 0.128364 0.0115885
  Final line search alpha, max atom move = 4.76837e-07 5.52582e-09
  Iterations, force evaluations = 15 71

MPI task timing breakdown:
Section |  min time  |  avg time  |  max time  |%varavg| %total
---------------------------------------------------------------
Pair    | 0.072336   | 0.078293   | 0.081776   |   0.9 | 38.13
Kspace  | 0.11307    | 0.11562    | 0.11755    |   0.4 | 56.30
Neigh   | 0          | 0          | 0          |   0.0 |  0.00
Comm    | 0.0073295  | 0.010273   | 0.014512   |   2.3 |  5.00
Output  | 0          | 0          | 0          |   0.0 |  0.00
Modify  | 0          | 0          | 0          |   0.0 |  0.00
Other   |            | 0.001162   |            |       |  0.57

Nlocal:    84 ave 87 max 79 min
Histogram: 1 1 1 0 0 1 2 1 3 2
Nghost:    2607.33 ave 2630 max 2584 min
Histogram: 2 1 0 3 0 1 1 0 2 2
Neighs:    18639.6 ave 19307 max 17491 min
Histogram: 1 1 1 0 0 1 2 1 3 2

Total # of neighbors = 223675
Ave neighs/atom = 221.9
Neighbor list builds = 0
Dangerous builds = 0
CR_UPDATE- 23.300680	23.300680	23.300680	0.000000	0.000000	0.000000
For k = 1, applying strain of 0.996667
Changing box ...
  triclinic box = (0 0 0) to (23.3007 23.3007 23.3007) with tilt (-0.077661 0 0)
WARNING: Resetting reneighboring criteria during minimization (../min.cpp:168)
Ewald initialization ...
  G vector (1/distance) = 0.365055
  estimated absolute RMS force accuracy = 1.94166e-05
  estimated relative force accuracy = 1.34841e-06
  KSpace vectors: actual max1d max3d = 2081 10 4630
                  kxmax kymax kzmax  = 10 10 10
Setting up cg style minimization ...
  Unit style: metal
Memory usage per processor = 4.56167 Mbytes
Step Temp E_pair E_mol TotEng Press 
     321           10   -18273.777            0   -18272.475   -5952.6114 
     336           10   -18273.804            0   -18272.503   -5914.9992 
Loop time of 0.205973 on 12 procs for 15 steps with 1008 atoms

99.9% CPU use with 12 MPI tasks x no OpenMP threads

Minimization stats:
  Stopping criterion = linesearch alpha is zero
  Energy initial, next-to-last, final = 
        -18273.7767954     -18273.8043004     -18273.8043004
  Force two-norm initial, final = 0.818658 0.0848067
  Force max component initial, final = 0.0854779 0.00704573
  Final line search alpha, max atom move = 9.53674e-07 6.71933e-09
  Iterations, force evaluations = 15 69

MPI task timing breakdown:
Section |  min time  |  avg time  |  max time  |%varavg| %total
---------------------------------------------------------------
Pair    | 0.071774   | 0.077255   | 0.081751   |   1.0 | 37.51
Kspace  | 0.11435    | 0.11644    | 0.11841    |   0.4 | 56.53
Neigh   | 0          | 0          | 0          |   0.0 |  0.00
Comm    | 0.0084438  | 0.011198   | 0.015392   |   2.2 |  5.44
Output  | 0          | 0          | 0          |   0.0 |  0.00
Modify  | 0          | 0          | 0          |   0.0 |  0.00
Other   |            | 0.001078   |            |       |  0.52

Nlocal:    84 ave 87 max 79 min
Histogram: 1 1 1 0 0 1 2 1 3 2
Nghost:    2607.33 ave 2630 max 2584 min
Histogram: 2 1 0 3 0 1 1 0 2 2
Neighs:    18638.7 ave 19307 max 17494 min
Histogram: 1 1 1 0 0 1 2 1 3 2

Total # of neighbors = 223664
Ave neighs/atom = 221.889
Neighbor list builds = 0
Dangerous builds = 0
CR_UPDATE- 23.300680	23.300680	23.300680	0.000000	0.000000	0.000000
For k = 2, applying strain of 0.998333
Changing box ...
  triclinic box = (0 0 0) to (23.3007 23.3007 23.3007) with tilt (-0.038842 0 0)
WARNING: Resetting reneighboring criteria during minimization (../min.cpp:168)
Ewald initialization ...
  G vector (1/distance) = 0.365055
  estimated absolute RMS force accuracy = 1.94166e-05
  estimated relative force accuracy = 1.34841e-06
  KSpace vectors: actual max1d max3d = 2082 10 4630
                  kxmax kymax kzmax  = 10 10 10
Setting up cg style minimization ...
  Unit style: metal
Memory usage per processor = 4.56167 Mbytes
Step Temp E_pair E_mol TotEng Press 
     336           10   -18273.837            0   -18272.535   -5965.7628 
     344           10   -18273.844            0   -18272.542    -5939.565 
Loop time of 0.162921 on 12 procs for 8 steps with 1008 atoms

99.9% CPU use with 12 MPI tasks x no OpenMP threads

Minimization stats:
  Stopping criterion = linesearch alpha is zero
  Energy initial, next-to-last, final = 
        -18273.8370623     -18273.8439114     -18273.8439114
  Force two-norm initial, final = 0.409511 0.0841847
  Force max component initial, final = 0.0427287 0.00985512
  Final line search alpha, max atom move = 9.53674e-07 9.39858e-09
  Iterations, force evaluations = 8 55

MPI task timing breakdown:
Section |  min time  |  avg time  |  max time  |%varavg| %total
---------------------------------------------------------------
Pair    | 0.057706   | 0.061751   | 0.065408   |   0.8 | 37.90
Kspace  | 0.090144   | 0.091962   | 0.094147   |   0.5 | 56.45
Neigh   | 0          | 0          | 0          |   0.0 |  0.00
Comm    | 0.0060325  | 0.0084057  | 0.01185    |   2.1 |  5.16
Output  | 0          | 0          | 0          |   0.0 |  0.00
Modify  | 0          | 0          | 0          |   0.0 |  0.00
Other   |            | 0.000802   |            |       |  0.49

Nlocal:    84 ave 87 max 79 min
Histogram: 1 1 1 0 0 1 2 1 3 2
Nghost:    2607.33 ave 2630 max 2584 min
Histogram: 2 1 0 3 0 1 1 0 2 2
Neighs:    18642.2 ave 19314 max 17496 min
Histogram: 2 0 1 0 0 1 2 1 2 3

Total # of neighbors = 223706
Ave neighs/atom = 221.931
Neighbor list builds = 0
Dangerous builds = 0
CR_UPDATE- 23.300680	23.300680	23.300680	0.000000	0.000000	0.000000
For k = 3, applying strain of 1
Changing box ...
  triclinic box = (0 0 0) to (23.3007 23.3007 23.3007) with tilt (0 0 0)
WARNING: Resetting reneighboring criteria during minimization (../min.cpp:168)
Ewald initialization ...
  G vector (1/distance) = 0.365055
  estimated absolute RMS force accuracy = 1.94166e-05
  estimated relative force accuracy = 1.34841e-06
  KSpace vectors: actual max1d max3d = 2084 10 4630
                  kxmax kymax kzmax  = 10 10 10
Setting up cg style minimization ...
  Unit style: metal
Memory usage per processor = 4.56167 Mbytes
Step Temp E_pair E_mol TotEng Press 
     344           10   -18273.868            0   -18272.567   -5974.1648 
     345           10   -18273.868            0   -18272.567   -5974.1648 
Loop time of 0.0695027 on 12 procs for 1 steps with 1008 atoms

99.9% CPU use with 12 MPI tasks x no OpenMP threads

Minimization stats:
  Stopping criterion = linesearch alpha is zero
  Energy initial, next-to-last, final = 
        -18273.8684535     -18273.8684535     -18273.8684535
  Force two-norm initial, final = 0.00473568 0.00473568
  Force max component initial, final = 0.000368722 0.000368722
  Final line search alpha, max atom move = 0.000488281 1.8004e-07
  Iterations, force evaluations = 1 23

MPI task timing breakdown:
Section |  min time  |  avg time  |  max time  |%varavg| %total
---------------------------------------------------------------
Pair    | 0.024745   | 0.026355   | 0.027814   |   0.5 | 37.92
Kspace  | 0.038635   | 0.039233   | 0.039816   |   0.2 | 56.45
Neigh   | 0          | 0          | 0          |   0.0 |  0.00
Comm    | 0.0025892  | 0.0035766  | 0.0048687  |   1.2 |  5.15
Output  | 0          | 0          | 0          |   0.0 |  0.00
Modify  | 0          | 0          | 0          |   0.0 |  0.00
Other   |            | 0.0003379  |            |       |  0.49

Nlocal:    84 ave 87 max 79 min
Histogram: 1 1 1 0 0 1 2 1 3 2
Nghost:    2607.33 ave 2630 max 2584 min
Histogram: 2 1 0 3 0 1 1 0 2 2
Neighs:    18641.8 ave 19314 max 17494 min
Histogram: 2 1 0 0 0 1 2 1 2 3

Total # of neighbors = 223701
Ave neighs/atom = 221.926
Neighbor list builds = 0
Dangerous builds = 0
CR_UPDATE- 23.300680	23.300680	23.300680	0.000000	0.000000	0.000000
For k = 4, applying strain of 1.00167
Changing box ...
  triclinic box = (0 0 0) to (23.3007 23.3007 23.3007) with tilt (0.038842 0 0)
WARNING: Resetting reneighboring criteria during minimization (../min.cpp:168)
Ewald initialization ...
  G vector (1/distance) = 0.365055
  estimated absolute RMS force accuracy = 1.94166e-05
  estimated relative force accuracy = 1.34841e-06
  KSpace vectors: actual max1d max3d = 2082 10 4630
                  kxmax kymax kzmax  = 10 10 10
Setting up cg style minimization ...
  Unit style: metal
Memory usage per processor = 4.56167 Mbytes
Step Temp E_pair E_mol TotEng Press 
     345           10   -18273.876            0   -18272.574   -5978.9044 
     350           10   -18273.881            0    -18272.58   -5987.7644 
Loop time of 0.149257 on 12 procs for 5 steps with 1008 atoms

99.8% CPU use with 12 MPI tasks x no OpenMP threads

Minimization stats:
  Stopping criterion = linesearch alpha is zero
  Energy initial, next-to-last, final = 
        -18273.8756907     -18273.8811901     -18273.8811901
  Force two-norm initial, final = 0.4092 0.12983
  Force max component initial, final = 0.0424928 0.0141816
  Final line search alpha, max atom move = 4.76837e-07 6.76232e-09
  Iterations, force evaluations = 5 51

MPI task timing breakdown:
Section |  min time  |  avg time  |  max time  |%varavg| %total
---------------------------------------------------------------
Pair    | 0.052686   | 0.056687   | 0.060107   |   0.8 | 37.98
Kspace  | 0.082631   | 0.084619   | 0.085949   |   0.3 | 56.69
Neigh   | 0          | 0          | 0          |   0.0 |  0.00
Comm    | 0.0052578  | 0.0072388  | 0.010067   |   1.9 |  4.85
Output  | 0          | 0          | 0          |   0.0 |  0.00
Modify  | 0          | 0          | 0          |   0.0 |  0.00
Other   |            | 0.0007119  |            |       |  0.48

Nlocal:    84 ave 87 max 79 min
Histogram: 1 1 1 0 0 1 2 1 3 2
Nghost:    2607.33 ave 2630 max 2584 min
Histogram: 2 1 0 3 0 1 1 0 2 2
Neighs:    18641.7 ave 19323 max 17493 min
Histogram: 2 1 0 0 0 1 2 1 2 3

Total # of neighbors = 223700
Ave neighs/atom = 221.925
Neighbor list builds = 0
Dangerous builds = 0
CR_UPDATE- 23.300680	23.300680	23.300680	0.000000	0.000000	0.000000
For k = 5, applying strain of 1.00333
Changing box ...
  triclinic box = (0 0 0) to (23.3007 23.3007 23.3007) with tilt (0.077661 0 0)
WARNING: Resetting reneighboring criteria during minimization (../min.cpp:168)
Ewald initialization ...
  G vector (1/distance) = 0.365055
  estimated absolute RMS force accuracy = 1.94166e-05
  estimated relative force accuracy = 1.34841e-06
  KSpace vectors: actual max1d max3d = 2081 10 4630
                  kxmax kymax kzmax  = 10 10 10
Setting up cg style minimization ...
  Unit style: metal
Memory usage per processor = 4.56167 Mbytes
Step Temp E_pair E_mol TotEng Press 
     350           10   -18273.851            0    -18272.55   -5978.2086 
     365           10   -18273.877            0   -18272.576   -6011.8542 
Loop time of 0.205316 on 12 procs for 15 steps with 1008 atoms

99.7% CPU use with 12 MPI tasks x no OpenMP threads

Minimization stats:
  Stopping criterion = linesearch alpha is zero
  Energy initial, next-to-last, final = 
        -18273.8512762     -18273.8772434     -18273.8772434
  Force two-norm initial, final = 0.818291 0.0856888
  Force max component initial, final = 0.0849219 0.00617388
  Final line search alpha, max atom move = 9.53674e-07 5.88787e-09
  Iterations, force evaluations = 15 71

MPI task timing breakdown:
Section |  min time  |  avg time  |  max time  |%varavg| %total
---------------------------------------------------------------
Pair    | 0.073138   | 0.078257   | 0.08117    |   0.8 | 38.12
Kspace  | 0.11349    | 0.11537    | 0.11764    |   0.4 | 56.19
Neigh   | 0          | 0          | 0          |   0.0 |  0.00
Comm    | 0.0073545  | 0.010551   | 0.015063   |   2.4 |  5.14
Output  | 0          | 0          | 0          |   0.0 |  0.00
Modify  | 0          | 0          | 0          |   0.0 |  0.00
Other   |            | 0.001137   |            |       |  0.55

Nlocal:    84 ave 87 max 79 min
Histogram: 1 1 1 0 0 1 2 1 3 2
Nghost:    2607.33 ave 2630 max 2584 min
Histogram: 2 1 0 3 0 1 1 0 2 2
Neighs:    18639.2 ave 19317 max 17492 min
Histogram: 2 1 0 0 0 1 2 1 2 3

Total # of neighbors = 223670
Ave neighs/atom = 221.895
Neighbor list builds = 0
Dangerous builds = 0
CR_UPDATE- 23.300680	23.300680	23.300680	0.000000	0.000000	0.000000
For k = 6, applying strain of 1.005
Changing box ...
  triclinic box = (0 0 0) to (23.3007 23.3007 23.3007) with tilt (0.116503 0 0)
WARNING: Resetting reneighboring criteria during minimization (../min.cpp:168)
Ewald initialization ...
  G vector (1/distance) = 0.365055
  estimated absolute RMS force accuracy = 1.94166e-05
  estimated relative force accuracy = 1.34841e-06
  KSpace vectors: actual max1d max3d = 2079 10 4630
                  kxmax kymax kzmax  = 10 10 10
Setting up cg style minimization ...
  Unit style: metal
Memory usage per processor = 4.56167 Mbytes
Step Temp E_pair E_mol TotEng Press 
     365           10   -18273.801            0     -18272.5   -5973.6984 
     383           10   -18273.862            0    -18272.56   -6049.5685 
Loop time of 0.222705 on 12 procs for 18 steps with 1008 atoms

100.0% CPU use with 12 MPI tasks x no OpenMP threads

Minimization stats:
  Stopping criterion = linesearch alpha is zero
  Energy initial, next-to-last, final = 
        -18273.8014866     -18273.8616271     -18273.8616271
  Force two-norm initial, final = 1.22761 0.10464
  Force max component initial, final = 0.127267 0.00934498
  Final line search alpha, max atom move = 9.53674e-07 8.91207e-09
  Iterations, force evaluations = 18 75

MPI task timing breakdown:
Section |  min time  |  avg time  |  max time  |%varavg| %total
---------------------------------------------------------------
Pair    | 0.077876   | 0.083977   | 0.088022   |   1.0 | 37.71
Kspace  | 0.12333    | 0.12556    | 0.12732    |   0.4 | 56.38
Neigh   | 0          | 0          | 0          |   0.0 |  0.00
Comm    | 0.008971   | 0.011956   | 0.016185   |   2.2 |  5.37
Output  | 0          | 0          | 0          |   0.0 |  0.00
Modify  | 0          | 0          | 0          |   0.0 |  0.00
Other   |            | 0.001208   |            |       |  0.54

Nlocal:    84 ave 87 max 79 min
Histogram: 1 1 1 0 0 1 2 1 3 2
Nghost:    2607.33 ave 2630 max 2584 min
Histogram: 2 1 0 3 0 1 1 0 2 2
Neighs:    18639.1 ave 19313 max 17495 min
Histogram: 2 1 0 0 0 1 2 1 2 3

Total # of neighbors = 223669
Ave neighs/atom = 221.894
Neighbor list builds = 0
Dangerous builds = 0
CR_UPDATE- 23.300680	23.300680	23.300680	0.000000	0.000000	0.000000
For k = 0, applying strain of 0.995
Changing box ...
  triclinic box = (0 0 0) to (23.3007 23.3007 23.3007) with tilt (0 -0.116503 0)
WARNING: Resetting reneighboring criteria during minimization (../min.cpp:168)
Ewald initialization ...
  G vector (1/distance) = 0.365055
  estimated absolute RMS force accuracy = 1.94166e-05
  estimated relative force accuracy = 1.34841e-06
  KSpace vectors: actual max1d max3d = 2079 10 4630
                  kxmax kymax kzmax  = 10 10 10
Setting up cg style minimization ...
  Unit style: metal
Memory usage per processor = 4.56167 Mbytes
Step Temp E_pair E_mol TotEng Press 
     383           10   -18273.721            0   -18272.419   -5881.3326 
     395           10   -18273.775            0   -18272.474   -5963.6395 
Loop time of 0.193115 on 12 procs for 12 steps with 1008 atoms

99.8% CPU use with 12 MPI tasks x no OpenMP threads

Minimization stats:
  Stopping criterion = linesearch alpha is zero
  Energy initial, next-to-last, final = 
        -18273.7207159     -18273.7753646     -18273.7753646
  Force two-norm initial, final = 1.23852 0.158166
  Force max component initial, final = 0.102395 0.0122054
  Final line search alpha, max atom move = 4.76837e-07 5.81999e-09
  Iterations, force evaluations = 12 65

MPI task timing breakdown:
Section |  min time  |  avg time  |  max time  |%varavg| %total
---------------------------------------------------------------
Pair    | 0.067943   | 0.072979   | 0.077261   |   0.9 | 37.79
Kspace  | 0.10658    | 0.10902    | 0.11132    |   0.5 | 56.46
Neigh   | 0          | 0          | 0          |   0.0 |  0.00
Comm    | 0.0076082  | 0.010112   | 0.013982   |   2.2 |  5.24
Output  | 0          | 0          | 0          |   0.0 |  0.00
Modify  | 0          | 0          | 0          |   0.0 |  0.00
Other   |            | 0.0009995  |            |       |  0.52

Nlocal:    84 ave 87 max 79 min
Histogram: 1 1 1 0 0 1 2 1 3 2
Nghost:    2607.33 ave 2630 max 2584 min
Histogram: 2 1 0 3 0 1 1 0 2 2
Neighs:    18639.1 ave 19307 max 17497 min
Histogram: 2 1 0 0 0 1 2 1 3 2

Total # of neighbors = 223669
Ave neighs/atom = 221.894
Neighbor list builds = 0
Dangerous builds = 0
CR_UPDATE- 23.300680	23.300680	23.300680	0.000000	0.000000	0.000000
For k = 1, applying strain of 0.996667
Changing box ...
  triclinic box = (0 0 0) to (23.3007 23.3007 23.3007) with tilt (0 -0.077661 0)
WARNING: Resetting reneighboring criteria during minimization (../min.cpp:168)
Ewald initialization ...
  G vector (1/distance) = 0.365055
  estimated absolute RMS force accuracy = 1.94166e-05
  estimated relative force accuracy = 1.34841e-06
  KSpace vectors: actual max1d max3d = 2081 10 4630
                  kxmax kymax kzmax  = 10 10 10
Setting up cg style minimization ...
  Unit style: metal
Memory usage per processor = 4.56167 Mbytes
Step Temp E_pair E_mol TotEng Press 
     395           10     -18273.8            0   -18272.498   -5917.7732 
     400           10   -18273.819            0   -18272.518   -5933.3696 
     409           10   -18273.824            0   -18272.522   -5965.6301 
Loop time of 0.200031 on 12 procs for 14 steps with 1008 atoms

99.9% CPU use with 12 MPI tasks x no OpenMP threads

Minimization stats:
  Stopping criterion = linesearch alpha is zero
  Energy initial, next-to-last, final = 
        -18273.7995874     -18273.8235331     -18273.8235331
  Force two-norm initial, final = 0.825707 0.0877368
  Force max component initial, final = 0.0684024 0.0090025
  Final line search alpha, max atom move = 9.53674e-07 8.58546e-09
  Iterations, force evaluations = 14 69

MPI task timing breakdown:
Section |  min time  |  avg time  |  max time  |%varavg| %total
---------------------------------------------------------------
Pair    | 0.070891   | 0.075775   | 0.080144   |   0.9 | 37.88
Kspace  | 0.11155    | 0.11333    | 0.11535    |   0.4 | 56.66
Neigh   | 0          | 0          | 0          |   0.0 |  0.00
Comm    | 0.0070083  | 0.0098651  | 0.013714   |   2.2 |  4.93
Output  | 2.2173e-05 | 2.2411e-05 | 2.5034e-05 |   0.0 |  0.01
Modify  | 0          | 0          | 0          |   0.0 |  0.00
Other   |            | 0.001036   |            |       |  0.52

Nlocal:    84 ave 87 max 79 min
Histogram: 1 1 1 0 0 1 2 1 3 2
Nghost:    2607.33 ave 2630 max 2584 min
Histogram: 2 1 0 3 0 1 1 0 2 2
Neighs:    18640.2 ave 19308 max 17502 min
Histogram: 2 1 0 0 0 1 2 1 2 3

Total # of neighbors = 223682
Ave neighs/atom = 221.907
Neighbor list builds = 0
Dangerous builds = 0
CR_UPDATE- 23.300680	23.300680	23.300680	0.000000	0.000000	0.000000
For k = 2, applying strain of 0.998333
Changing box ...
  triclinic box = (0 0 0) to (23.3007 23.3007 23.3007) with tilt (0 -0.038842 0)
WARNING: Resetting reneighboring criteria during minimization (../min.cpp:168)
Ewald initialization ...
  G vector (1/distance) = 0.365055
  estimated absolute RMS force accuracy = 1.94166e-05
  estimated relative force accuracy = 1.34841e-06
  KSpace vectors: actual max1d max3d = 2082 10 4630
                  kxmax kymax kzmax  = 10 10 10
Setting up cg style minimization ...
  Unit style: metal
Memory usage per processor = 4.56167 Mbytes
Step Temp E_pair E_mol TotEng Press 
     409           10   -18273.847            0   -18272.545   -5948.2327 
     419           10   -18273.855            0   -18272.554   -5965.6105 
Loop time of 0.165656 on 12 procs for 10 steps with 1008 atoms

100.1% CPU use with 12 MPI tasks x no OpenMP threads

Minimization stats:
  Stopping criterion = linesearch alpha is zero
  Energy initial, next-to-last, final = 
         -18273.846973     -18273.8554183     -18273.8554183
  Force two-norm initial, final = 0.413112 0.0668513
  Force max component initial, final = 0.0342655 0.00618182
  Final line search alpha, max atom move = 1.90735e-06 1.17909e-08
  Iterations, force evaluations = 10 57

MPI task timing breakdown:
Section |  min time  |  avg time  |  max time  |%varavg| %total
---------------------------------------------------------------
Pair    | 0.058568   | 0.063035   | 0.066317   |   0.8 | 38.05
Kspace  | 0.091604   | 0.093465   | 0.095273   |   0.3 | 56.42
Neigh   | 0          | 0          | 0          |   0.0 |  0.00
Comm    | 0.0058408  | 0.0082568  | 0.011754   |   2.1 |  4.98
Output  | 0          | 0          | 0          |   0.0 |  0.00
Modify  | 0          | 0          | 0          |   0.0 |  0.00
Other   |            | 0.0008993  |            |       |  0.54

Nlocal:    84 ave 87 max 79 min
Histogram: 1 1 1 0 0 1 2 1 3 2
Nghost:    2607.33 ave 2630 max 2584 min
Histogram: 2 1 0 3 0 1 1 0 2 2
Neighs:    18641.7 ave 19317 max 17500 min
Histogram: 2 1 0 0 0 1 2 1 2 3

Total # of neighbors = 223700
Ave neighs/atom = 221.925
Neighbor list builds = 0
Dangerous builds = 0
CR_UPDATE- 23.300680	23.300680	23.300680	0.000000	0.000000	0.000000
For k = 3, applying strain of 1
Changing box ...
  triclinic box = (0 0 0) to (23.3007 23.3007 23.3007) with tilt (0 0 0)
WARNING: Resetting reneighboring criteria during minimization (../min.cpp:168)
Ewald initialization ...
  G vector (1/distance) = 0.365055
  estimated absolute RMS force accuracy = 1.94166e-05
  estimated relative force accuracy = 1.34841e-06
  KSpace vectors: actual max1d max3d = 2084 10 4630
                  kxmax kymax kzmax  = 10 10 10
Setting up cg style minimization ...
  Unit style: metal
Memory usage per processor = 4.56167 Mbytes
Step Temp E_pair E_mol TotEng Press 
     419           10   -18273.868            0   -18272.567   -5974.1648 
     420           10   -18273.868            0   -18272.567   -5974.1648 
Loop time of 0.0697768 on 12 procs for 1 steps with 1008 atoms

99.5% CPU use with 12 MPI tasks x no OpenMP threads

Minimization stats:
  Stopping criterion = linesearch alpha is zero
  Energy initial, next-to-last, final = 
        -18273.8684535     -18273.8684535     -18273.8684535
  Force two-norm initial, final = 0.00473568 0.00473568
  Force max component initial, final = 0.000368722 0.000368722
  Final line search alpha, max atom move = 0.000488281 1.8004e-07
  Iterations, force evaluations = 1 23

MPI task timing breakdown:
Section |  min time  |  avg time  |  max time  |%varavg| %total
---------------------------------------------------------------
Pair    | 0.024224   | 0.026312   | 0.027636   |   0.6 | 37.71
Kspace  | 0.038689   | 0.039455   | 0.040172   |   0.2 | 56.54
Neigh   | 0          | 0          | 0          |   0.0 |  0.00
Comm    | 0.0025675  | 0.003641   | 0.0052011  |   1.4 |  5.22
Output  | 0          | 0          | 0          |   0.0 |  0.00
Modify  | 0          | 0          | 0          |   0.0 |  0.00
Other   |            | 0.0003689  |            |       |  0.53

Nlocal:    84 ave 87 max 79 min
Histogram: 1 1 1 0 0 1 2 1 3 2
Nghost:    2607.33 ave 2630 max 2584 min
Histogram: 2 1 0 3 0 1 1 0 2 2
Neighs:    18641.8 ave 19314 max 17494 min
Histogram: 2 1 0 0 0 1 2 1 2 3

Total # of neighbors = 223701
Ave neighs/atom = 221.926
Neighbor list builds = 0
Dangerous builds = 0
CR_UPDATE- 23.300680	23.300680	23.300680	0.000000	0.000000	0.000000
For k = 4, applying strain of 1.00167
Changing box ...
  triclinic box = (0 0 0) to (23.3007 23.3007 23.3007) with tilt (0 0.038842 0)
WARNING: Resetting reneighboring criteria during minimization (../min.cpp:168)
Ewald initialization ...
  G vector (1/distance) = 0.365055
  estimated absolute RMS force accuracy = 1.94166e-05
  estimated relative force accuracy = 1.34841e-06
  KSpace vectors: actual max1d max3d = 2082 10 4630
                  kxmax kymax kzmax  = 10 10 10
Setting up cg style minimization ...
  Unit style: metal
Memory usage per processor = 4.56167 Mbytes
Step Temp E_pair E_mol TotEng Press 
     420           10   -18273.863            0   -18272.562   -5995.3885 
     427           10   -18273.868            0   -18272.567   -5978.6474 
Loop time of 0.159592 on 12 procs for 7 steps with 1008 atoms

99.7% CPU use with 12 MPI tasks x no OpenMP threads

Minimization stats:
  Stopping criterion = linesearch alpha is zero
  Energy initial, next-to-last, final = 
        -18273.8631894     -18273.8684572     -18273.8684572
  Force two-norm initial, final = 0.413078 0.0946655
  Force max component initial, final = 0.0345418 0.0137338
  Final line search alpha, max atom move = 9.53674e-07 1.30976e-08
  Iterations, force evaluations = 7 53

MPI task timing breakdown:
Section |  min time  |  avg time  |  max time  |%varavg| %total
---------------------------------------------------------------
Pair    | 0.056027   | 0.059911   | 0.062863   |   0.8 | 37.54
Kspace  | 0.088721   | 0.090234   | 0.091672   |   0.3 | 56.54
Neigh   | 0          | 0          | 0          |   0.0 |  0.00
Comm    | 0.0064688  | 0.0086452  | 0.011883   |   1.9 |  5.42
Output  | 0          | 0          | 0          |   0.0 |  0.00
Modify  | 0          | 0          | 0          |   0.0 |  0.00
Other   |            | 0.0008016  |            |       |  0.50

Nlocal:    84 ave 87 max 79 min
Histogram: 1 1 1 0 0 1 2 1 3 2
Nghost:    2607.33 ave 2630 max 2584 min
Histogram: 2 1 0 3 0 1 1 0 2 2
Neighs:    18641.5 ave 19320 max 17490 min
Histogram: 1 2 0 0 0 1 2 1 3 2

Total # of neighbors = 223698
Ave neighs/atom = 221.923
Neighbor list builds = 0
Dangerous builds = 0
CR_UPDATE- 23.300680	23.300680	23.300680	0.000000	0.000000	0.000000
For k = 5, applying strain of 1.00333
Changing box ...
  triclinic box = (0 0 0) to (23.3007 23.3007 23.3007) with tilt (0 0.077661 0)
WARNING: Resetting reneighboring criteria during minimization (../min.cpp:168)
Ewald initialization ...
  G vector (1/distance) = 0.365055
  estimated absolute RMS force accuracy = 1.94166e-05
  estimated relative force accuracy = 1.34841e-06
  KSpace vectors: actual max1d max3d = 2081 10 4630
                  kxmax kymax kzmax  = 10 10 10
Setting up cg style minimization ...
  Unit style: metal
Memory usage per processor = 4.56167 Mbytes
Step Temp E_pair E_mol TotEng Press 
     427           10   -18273.833            0   -18272.531    -6012.355 
     442           10   -18273.858            0   -18272.557   -5952.0053 
Loop time of 0.302936 on 12 procs for 15 steps with 1008 atoms

99.8% CPU use with 12 MPI tasks x no OpenMP threads

Minimization stats:
  Stopping criterion = linesearch alpha is zero
  Energy initial, next-to-last, final = 
        -18273.8327961     -18273.8582671     -18273.8582671
  Force two-norm initial, final = 0.8261 0.0819202
  Force max component initial, final = 0.0691759 0.00975058
  Final line search alpha, max atom move = 9.53674e-07 9.29887e-09
  Iterations, force evaluations = 15 103

MPI task timing breakdown:
Section |  min time  |  avg time  |  max time  |%varavg| %total
---------------------------------------------------------------
Pair    | 0.10748    | 0.11368    | 0.12108    |   1.0 | 37.52
Kspace  | 0.16833    | 0.17163    | 0.17431    |   0.4 | 56.66
Neigh   | 0          | 0          | 0          |   0.0 |  0.00
Comm    | 0.012076   | 0.01615    | 0.021871   |   2.6 |  5.33
Output  | 0          | 0          | 0          |   0.0 |  0.00
Modify  | 0          | 0          | 0          |   0.0 |  0.00
Other   |            | 0.001477   |            |       |  0.49

Nlocal:    84 ave 87 max 79 min
Histogram: 1 1 1 0 0 1 2 1 3 2
Nghost:    2607.33 ave 2630 max 2584 min
Histogram: 2 1 0 3 0 1 1 0 2 2
Neighs:    18639.8 ave 19322 max 17492 min
Histogram: 1 2 0 0 0 1 2 1 3 2

Total # of neighbors = 223677
Ave neighs/atom = 221.902
Neighbor list builds = 0
Dangerous builds = 0
CR_UPDATE- 23.300680	23.300680	23.300680	0.000000	0.000000	0.000000
For k = 6, applying strain of 1.005
Changing box ...
  triclinic box = (0 0 0) to (23.3007 23.3007 23.3007) with tilt (0 0.116503 0)
WARNING: Resetting reneighboring criteria during minimization (../min.cpp:168)
Ewald initialization ...
  G vector (1/distance) = 0.365055
  estimated absolute RMS force accuracy = 1.94166e-05
  estimated relative force accuracy = 1.34841e-06
  KSpace vectors: actual max1d max3d = 2079 10 4630
                  kxmax kymax kzmax  = 10 10 10
Setting up cg style minimization ...
  Unit style: metal
Memory usage per processor = 4.56167 Mbytes
Step Temp E_pair E_mol TotEng Press 
     442           10   -18273.772            0    -18272.47   -6023.5746 
     450           10   -18273.828            0   -18272.527   -5967.2653 
     455           10   -18273.833            0   -18272.532   -5949.4494 
Loop time of 0.195604 on 12 procs for 13 steps with 1008 atoms

100.1% CPU use with 12 MPI tasks x no OpenMP threads

Minimization stats:
  Stopping criterion = linesearch alpha is zero
  Energy initial, next-to-last, final = 
        -18273.7715894     -18273.8332653     -18273.8332653
  Force two-norm initial, final = 1.23952 0.144807
  Force max component initial, final = 0.10399 0.0144774
  Final line search alpha, max atom move = 4.76837e-07 6.90335e-09
  Iterations, force evaluations = 13 67

MPI task timing breakdown:
Section |  min time  |  avg time  |  max time  |%varavg| %total
---------------------------------------------------------------
Pair    | 0.069511   | 0.074066   | 0.079121   |   0.9 | 37.87
Kspace  | 0.10834    | 0.11081    | 0.11296    |   0.4 | 56.65
Neigh   | 0          | 0          | 0          |   0.0 |  0.00
Comm    | 0.0070522  | 0.0096281  | 0.013332   |   2.2 |  4.92
Output  | 2.3127e-05 | 2.4418e-05 | 3.0041e-05 |   0.0 |  0.01
Modify  | 0          | 0          | 0          |   0.0 |  0.00
Other   |            | 0.001072   |            |       |  0.55

Nlocal:    84 ave 87 max 79 min
[...]
  KSpace vectors: actual max1d max3d = 2081 10 4630
                  kxmax kymax kzmax  = 10 10 10
Setting up cg style minimization ...
  Unit style: metal
Memory usage per processor = 4.56167 Mbytes
Step Temp E_pair E_mol TotEng Press 
     904           10   -18273.789            0   -18272.487   -6543.2539 
     913           10   -18273.813            0   -18272.511   -6497.5001 
Loop time of 0.172731 on 12 procs for 9 steps with 1008 atoms

99.8% CPU use with 12 MPI tasks x no OpenMP threads

Minimization stats:
  Stopping criterion = linesearch alpha is zero
  Energy initial, next-to-last, final = 
        -18273.7886524      -18273.812819      -18273.812819
  Force two-norm initial, final = 0.824293 0.143233
  Force max component initial, final = 0.0697683 0.0178345
  Final line search alpha, max atom move = 4.76837e-07 8.50416e-09
  Iterations, force evaluations = 9 59

MPI task timing breakdown:
Section |  min time  |  avg time  |  max time  |%varavg| %total
---------------------------------------------------------------
Pair    | 0.059635   | 0.065315   | 0.068289   |   0.9 | 37.81
Kspace  | 0.096129   | 0.097369   | 0.099116   |   0.3 | 56.37
Neigh   | 0          | 0          | 0          |   0.0 |  0.00
Comm    | 0.0063996  | 0.0091927  | 0.013059   |   2.1 |  5.32
Output  | 0          | 0          | 0          |   0.0 |  0.00
Modify  | 0          | 0          | 0          |   0.0 |  0.00
Other   |            | 0.0008534  |            |       |  0.49

Nlocal:    84 ave 88 max 78 min
Histogram: 1 0 0 2 0 2 1 1 3 2
Nghost:    2604.08 ave 2627 max 2576 min
Histogram: 1 1 2 2 0 0 0 2 0 4
Neighs:    18632.5 ave 19369 max 17254 min
Histogram: 1 0 1 1 0 1 2 1 3 2

Total # of neighbors = 223590
Ave neighs/atom = 221.815
Neighbor list builds = 0
Dangerous builds = 0
CR_UPDATE- 23.300680	23.300680	23.300680	0.000000	0.000000	0.000000
For k = 6, applying strain of 1.005
Changing box ...
  triclinic box = (0 0 0) to (23.3007 23.3007 23.3007) with tilt (0 0.116503 0)
WARNING: Resetting reneighboring criteria during minimization (../min.cpp:168)
Ewald initialization ...
  G vector (1/distance) = 0.365055
  estimated absolute RMS force accuracy = 1.94166e-05
  estimated relative force accuracy = 1.34841e-06
  KSpace vectors: actual max1d max3d = 2079 10 4630
                  kxmax kymax kzmax  = 10 10 10
Setting up cg style minimization ...
  Unit style: metal
Memory usage per processor = 4.56167 Mbytes
Step Temp E_pair E_mol TotEng Press 
     913           10    -18273.73            0   -18272.428   -6552.0767 
     927           10   -18273.785            0   -18272.483    -6485.611 
Loop time of 0.200038 on 12 procs for 14 steps with 1008 atoms

100.0% CPU use with 12 MPI tasks x no OpenMP threads

Minimization stats:
  Stopping criterion = linesearch alpha is zero
  Energy initial, next-to-last, final = 
        -18273.7299851     -18273.7845436     -18273.7845436
  Force two-norm initial, final = 1.23679 0.129911
  Force max component initial, final = 0.104889 0.0124511
  Final line search alpha, max atom move = 4.76837e-07 5.93717e-09
  Iterations, force evaluations = 14 69

MPI task timing breakdown:
Section |  min time  |  avg time  |  max time  |%varavg| %total
---------------------------------------------------------------
Pair    | 0.070833   | 0.076001   | 0.079987   |   0.9 | 37.99
Kspace  | 0.11011    | 0.1124     | 0.1143     |   0.4 | 56.19
Neigh   | 0          | 0          | 0          |   0.0 |  0.00
Comm    | 0.0072217  | 0.010538   | 0.015209   |   2.3 |  5.27
Output  | 0          | 0          | 0          |   0.0 |  0.00
Modify  | 0          | 0          | 0          |   0.0 |  0.00
Other   |            | 0.001102   |            |       |  0.55

Nlocal:    84 ave 88 max 78 min
Histogram: 1 0 0 2 0 2 1 1 3 2
Nghost:    2604.08 ave 2627 max 2576 min
Histogram: 1 1 2 2 0 0 0 2 0 4
Neighs:    18631.8 ave 19363 max 17258 min
Histogram: 1 0 1 1 0 1 2 1 3 2

Total # of neighbors = 223581
Ave neighs/atom = 221.807
Neighbor list builds = 0
Dangerous builds = 0
CR_UPDATE- 23.300680	23.300680	23.300680	0.000000	0.000000	0.000000
For k = 0, applying strain of 0.995
Changing box ...
  triclinic box = (0 0 0) to (23.3007 23.3007 23.3007) with tilt (0 0 -0.116503)
WARNING: Resetting reneighboring criteria during minimization (../min.cpp:168)
Ewald initialization ...
  G vector (1/distance) = 0.365055
  estimated absolute RMS force accuracy = 1.94166e-05
  estimated relative force accuracy = 1.34841e-06
  KSpace vectors: actual max1d max3d = 2079 10 4630
                  kxmax kymax kzmax  = 10 10 10
Setting up cg style minimization ...
  Unit style: metal
Memory usage per processor = 4.56167 Mbytes
Step Temp E_pair E_mol TotEng Press 
     927           10   -18273.586            0   -18272.285   -6496.9981 
     943           10   -18273.647            0   -18272.346   -6392.5361 
Loop time of 0.215329 on 12 procs for 16 steps with 1008 atoms

99.9% CPU use with 12 MPI tasks x no OpenMP threads

Minimization stats:
  Stopping criterion = linesearch alpha is zero
  Energy initial, next-to-last, final = 
         -18273.586478     -18273.6473571     -18273.6473571
  Force two-norm initial, final = 1.25377 0.134913
  Force max component initial, final = 0.124406 0.0177865
  Final line search alpha, max atom move = 4.76837e-07 8.48127e-09
  Iterations, force evaluations = 16 73

MPI task timing breakdown:
Section |  min time  |  avg time  |  max time  |%varavg| %total
---------------------------------------------------------------
Pair    | 0.073612   | 0.080784   | 0.085891   |   1.1 | 37.52
Kspace  | 0.11865    | 0.12147    | 0.12339    |   0.5 | 56.41
Neigh   | 0          | 0          | 0          |   0.0 |  0.00
Comm    | 0.0079389  | 0.011945   | 0.017232   |   2.4 |  5.55
Output  | 0          | 0          | 0          |   0.0 |  0.00
Modify  | 0          | 0          | 0          |   0.0 |  0.00
Other   |            | 0.001132   |            |       |  0.53

Nlocal:    84 ave 88 max 78 min
Histogram: 1 0 0 2 0 2 1 1 3 2
Nghost:    2604.08 ave 2627 max 2576 min
Histogram: 1 1 2 2 0 0 0 2 0 4
Neighs:    18634.3 ave 19369 max 17245 min
Histogram: 1 0 1 1 0 1 2 1 2 3

Total # of neighbors = 223612
Ave neighs/atom = 221.837
Neighbor list builds = 0
Dangerous builds = 0
CR_UPDATE- 23.300680	23.300680	23.300680	0.000000	0.000000	0.000000
For k = 1, applying strain of 0.996667
Changing box ...
  triclinic box = (0 0 0) to (23.3007 23.3007 23.3007) with tilt (0 0 -0.077661)
WARNING: Resetting reneighboring criteria during minimization (../min.cpp:168)
Ewald initialization ...
  G vector (1/distance) = 0.365055
  estimated absolute RMS force accuracy = 1.94166e-05
  estimated relative force accuracy = 1.34841e-06
  KSpace vectors: actual max1d max3d = 2081 10 4630
                  kxmax kymax kzmax  = 10 10 10
Setting up cg style minimization ...
  Unit style: metal
Memory usage per processor = 4.56167 Mbytes
Step Temp E_pair E_mol TotEng Press 
     943           10   -18273.692            0   -18272.391   -6506.1841 
     950           10   -18273.717            0   -18272.416   -6417.0627 
     958           10   -18273.722            0   -18272.421   -6428.4612 
Loop time of 0.206219 on 12 procs for 15 steps with 1008 atoms

99.8% CPU use with 12 MPI tasks x no OpenMP threads

Minimization stats:
  Stopping criterion = linesearch alpha is zero
  Energy initial, next-to-last, final = 
        -18273.6923842     -18273.7224534     -18273.7224534
  Force two-norm initial, final = 0.835764 0.0983376
  Force max component initial, final = 0.0828957 0.0121329
  Final line search alpha, max atom move = 9.53674e-07 1.15708e-08
  Iterations, force evaluations = 15 69

MPI task timing breakdown:
Section |  min time  |  avg time  |  max time  |%varavg| %total
---------------------------------------------------------------
Pair    | 0.070606   | 0.077339   | 0.082181   |   1.1 | 37.50
Kspace  | 0.11334    | 0.11599    | 0.11797    |   0.5 | 56.24
Neigh   | 0          | 0          | 0          |   0.0 |  0.00
Comm    | 0.0081458  | 0.011762   | 0.016666   |   2.2 |  5.70
Output  | 2.2888e-05 | 2.414e-05  | 3.1948e-05 |   0.0 |  0.01
Modify  | 0          | 0          | 0          |   0.0 |  0.00
Other   |            | 0.001107   |            |       |  0.54

Nlocal:    84 ave 88 max 78 min
Histogram: 1 0 0 2 0 2 1 1 3 2
Nghost:    2604.08 ave 2627 max 2576 min
Histogram: 1 1 2 2 0 0 0 2 0 4
Neighs:    18634.7 ave 19371 max 17249 min
Histogram: 1 0 1 1 0 1 2 1 3 2

Total # of neighbors = 223616
Ave neighs/atom = 221.841
Neighbor list builds = 0
Dangerous builds = 0
CR_UPDATE- 23.300680	23.300680	23.300680	0.000000	0.000000	0.000000
For k = 2, applying strain of 0.998333
Changing box ...
  triclinic box = (0 0 0) to (23.3007 23.3007 23.3007) with tilt (0 0 -0.038842)
WARNING: Resetting reneighboring criteria during minimization (../min.cpp:168)
Ewald initialization ...
  G vector (1/distance) = 0.365055
  estimated absolute RMS force accuracy = 1.94166e-05
  estimated relative force accuracy = 1.34841e-06
  KSpace vectors: actual max1d max3d = 2082 10 4630
                  kxmax kymax kzmax  = 10 10 10
Setting up cg style minimization ...
  Unit style: metal
Memory usage per processor = 4.56167 Mbytes
Step Temp E_pair E_mol TotEng Press 
     958           10   -18273.774            0   -18272.472    -6511.465 
     968           10   -18273.781            0   -18272.479   -6461.2828 
Loop time of 0.168496 on 12 procs for 10 steps with 1008 atoms

100.2% CPU use with 12 MPI tasks x no OpenMP threads

Minimization stats:
  Stopping criterion = linesearch alpha is zero
  Energy initial, next-to-last, final = 
        -18273.7739598     -18273.7809851     -18273.7809851
  Force two-norm initial, final = 0.418079 0.0802274
  Force max component initial, final = 0.0414693 0.00807328
  Final line search alpha, max atom move = 1.90735e-06 1.53986e-08
  Iterations, force evaluations = 10 57

MPI task timing breakdown:
Section |  min time  |  avg time  |  max time  |%varavg| %total
---------------------------------------------------------------
Pair    | 0.058173   | 0.063307   | 0.067486   |   0.9 | 37.57
Kspace  | 0.093218   | 0.095163   | 0.096855   |   0.4 | 56.48
Neigh   | 0          | 0          | 0          |   0.0 |  0.00
Comm    | 0.006449   | 0.0091865  | 0.012972   |   2.0 |  5.45
Output  | 0          | 0          | 0          |   0.0 |  0.00
Modify  | 0          | 0          | 0          |   0.0 |  0.00
Other   |            | 0.0008407  |            |       |  0.50

Nlocal:    84 ave 88 max 78 min
Histogram: 1 0 0 2 0 2 1 1 3 2
Nghost:    2604.08 ave 2627 max 2576 min
Histogram: 1 1 2 2 0 0 0 2 0 4
Neighs:    18634.2 ave 19371 max 17250 min
Histogram: 1 0 1 1 0 1 2 1 3 2

Total # of neighbors = 223611
Ave neighs/atom = 221.836
Neighbor list builds = 0
Dangerous builds = 0
CR_UPDATE- 23.300680	23.300680	23.300680	0.000000	0.000000	0.000000
For k = 3, applying strain of 1
Changing box ...
  triclinic box = (0 0 0) to (23.3007 23.3007 23.3007) with tilt (0 0 0)
WARNING: Resetting reneighboring criteria during minimization (../min.cpp:168)
Ewald initialization ...
  G vector (1/distance) = 0.365055
  estimated absolute RMS force accuracy = 1.94166e-05
  estimated relative force accuracy = 1.34841e-06
  KSpace vectors: actual max1d max3d = 2084 10 4630
                  kxmax kymax kzmax  = 10 10 10
Setting up cg style minimization ...
  Unit style: metal
Memory usage per processor = 4.56167 Mbytes
Step Temp E_pair E_mol TotEng Press 
     968           10   -18273.829            0   -18272.527    -6512.369 
     969           10   -18273.829            0   -18272.527    -6512.369 
Loop time of 0.0691215 on 12 procs for 1 steps with 1008 atoms

99.8% CPU use with 12 MPI tasks x no OpenMP threads

Minimization stats:
  Stopping criterion = linesearch alpha is zero
  Energy initial, next-to-last, final = 
        -18273.8287661     -18273.8287661     -18273.8287661
  Force two-norm initial, final = 0.00475645 0.00475645
  Force max component initial, final = 0.000363026 0.000363026
  Final line search alpha, max atom move = 0.000488281 1.77259e-07
  Iterations, force evaluations = 1 23

MPI task timing breakdown:
Section |  min time  |  avg time  |  max time  |%varavg| %total
---------------------------------------------------------------
Pair    | 0.023939   | 0.026042   | 0.027493   |   0.6 | 37.68
Kspace  | 0.038458   | 0.039087   | 0.039779   |   0.2 | 56.55
Neigh   | 0          | 0          | 0          |   0.0 |  0.00
Comm    | 0.0025494  | 0.0036664  | 0.005033   |   1.3 |  5.30
Output  | 0          | 0          | 0          |   0.0 |  0.00
Modify  | 0          | 0          | 0          |   0.0 |  0.00
Other   |            | 0.000326   |            |       |  0.47

Nlocal:    84 ave 88 max 78 min
Histogram: 1 0 0 2 0 2 1 1 3 2
Nghost:    2604.08 ave 2627 max 2576 min
Histogram: 1 1 2 2 0 0 0 2 0 4
Neighs:    18635.1 ave 19373 max 17250 min
Histogram: 1 0 1 1 0 1 2 1 3 2

Total # of neighbors = 223621
Ave neighs/atom = 221.846
Neighbor list builds = 0
Dangerous builds = 0
CR_UPDATE- 23.300680	23.300680	23.300680	0.000000	0.000000	0.000000
For k = 4, applying strain of 1.00167
Changing box ...
  triclinic box = (0 0 0) to (23.3007 23.3007 23.3007) with tilt (0 0 0.038842)
WARNING: Resetting reneighboring criteria during minimization (../min.cpp:168)
Ewald initialization ...
  G vector (1/distance) = 0.365055
  estimated absolute RMS force accuracy = 1.94166e-05
  estimated relative force accuracy = 1.34841e-06
  KSpace vectors: actual max1d max3d = 2082 10 4630
                  kxmax kymax kzmax  = 10 10 10
Setting up cg style minimization ...
  Unit style: metal
Memory usage per processor = 4.56167 Mbytes
Step Temp E_pair E_mol TotEng Press 
     969           10   -18273.857            0   -18272.556   -6508.8459 
     976           10   -18273.865            0   -18272.563   -6543.6257 
Loop time of 0.154926 on 12 procs for 7 steps with 1008 atoms

100.0% CPU use with 12 MPI tasks x no OpenMP threads

Minimization stats:
  Stopping criterion = linesearch alpha is zero
  Energy initial, next-to-last, final = 
        -18273.8573736      -18273.864534      -18273.864534
  Force two-norm initial, final = 0.4178 0.101244
  Force max component initial, final = 0.0412617 0.00898526
  Final line search alpha, max atom move = 9.53674e-07 8.56901e-09
  Iterations, force evaluations = 7 53

MPI task timing breakdown:
Section |  min time  |  avg time  |  max time  |%varavg| %total
---------------------------------------------------------------
Pair    | 0.054667   | 0.058678   | 0.061547   |   0.8 | 37.87
Kspace  | 0.086025   | 0.087172   | 0.088305   |   0.3 | 56.27
Neigh   | 0          | 0          | 0          |   0.0 |  0.00
Comm    | 0.0057051  | 0.0083001  | 0.011828   |   2.0 |  5.36
Output  | 0          | 0          | 0          |   0.0 |  0.00
Modify  | 0          | 0          | 0          |   0.0 |  0.00
Other   |            | 0.0007757  |            |       |  0.50

Nlocal:    84 ave 88 max 78 min
Histogram: 1 0 0 2 0 2 1 1 3 2
Nghost:    2604.08 ave 2627 max 2576 min
Histogram: 1 1 2 2 0 0 0 2 0 4
Neighs:    18635 ave 19369 max 17255 min
Histogram: 1 0 1 1 0 2 1 1 3 2

Total # of neighbors = 223620
Ave neighs/atom = 221.845
Neighbor list builds = 0
Dangerous builds = 0
CR_UPDATE- 23.300680	23.300680	23.300680	0.000000	0.000000	0.000000
For k = 5, applying strain of 1.00333
Changing box ...
  triclinic box = (0 0 0) to (23.3007 23.3007 23.3007) with tilt (0 0 0.077661)
WARNING: Resetting reneighboring criteria during minimization (../min.cpp:168)
Ewald initialization ...
  G vector (1/distance) = 0.365055
  estimated absolute RMS force accuracy = 1.94166e-05
  estimated relative force accuracy = 1.34841e-06
  KSpace vectors: actual max1d max3d = 2081 10 4630
                  kxmax kymax kzmax  = 10 10 10
Setting up cg style minimization ...
  Unit style: metal
Memory usage per processor = 4.56167 Mbytes
Step Temp E_pair E_mol TotEng Press 
     976           10   -18273.858            0   -18272.556   -6500.5574 
     994           10   -18273.889            0   -18272.587   -6569.8084 
Loop time of 0.316598 on 12 procs for 18 steps with 1008 atoms

100.0% CPU use with 12 MPI tasks x no OpenMP threads

Minimization stats:
  Stopping criterion = linesearch alpha is zero
  Energy initial, next-to-last, final = 
          -18273.85789     -18273.8887856     -18273.8887856
  Force two-norm initial, final = 0.835494 0.0750443
  Force max component initial, final = 0.0825259 0.00905994
  Final line search alpha, max atom move = 1.90735e-06 1.72805e-08
  Iterations, force evaluations = 18 107

MPI task timing breakdown:
Section |  min time  |  avg time  |  max time  |%varavg| %total
---------------------------------------------------------------
Pair    | 0.10926    | 0.11882    | 0.12643    |   1.3 | 37.53
Kspace  | 0.17422    | 0.17841    | 0.18163    |   0.6 | 56.35
Neigh   | 0          | 0          | 0          |   0.0 |  0.00
Comm    | 0.011912   | 0.017749   | 0.025558   |   2.9 |  5.61
Output  | 0          | 0          | 0          |   0.0 |  0.00
Modify  | 0          | 0          | 0          |   0.0 |  0.00
Other   |            | 0.001612   |            |       |  0.51

Nlocal:    84 ave 88 max 78 min
Histogram: 1 0 0 2 0 2 1 1 3 2
Nghost:    2604.08 ave 2627 max 2576 min
Histogram: 1 1 2 2 0 0 0 2 0 4
Neighs:    18635.5 ave 19371 max 17255 min
Histogram: 1 0 1 1 0 2 1 1 3 2

Total # of neighbors = 223626
Ave neighs/atom = 221.851
Neighbor list builds = 0
Dangerous builds = 0
CR_UPDATE- 23.300680	23.300680	23.300680	0.000000	0.000000	0.000000
For k = 6, applying strain of 1.005
Changing box ...
  triclinic box = (0 0 0) to (23.3007 23.3007 23.3007) with tilt (0 0 0.116503)
WARNING: Resetting reneighboring criteria during minimization (../min.cpp:168)
Ewald initialization ...
  G vector (1/distance) = 0.365055
  estimated absolute RMS force accuracy = 1.94166e-05
  estimated relative force accuracy = 1.34841e-06
  KSpace vectors: actual max1d max3d = 2079 10 4630
                  kxmax kymax kzmax  = 10 10 10
Setting up cg style minimization ...
  Unit style: metal
Memory usage per processor = 4.56167 Mbytes
Step Temp E_pair E_mol TotEng Press 
     994           10    -18273.83            0   -18272.528   -6487.4369 
    1000           10   -18273.883            0   -18272.581   -6617.3191 
    1014           10   -18273.894            0   -18272.592    -6588.629 
Loop time of 0.233454 on 12 procs for 20 steps with 1008 atoms

99.9% CPU use with 12 MPI tasks x no OpenMP threads

Minimization stats:
  Stopping criterion = linesearch alpha is zero
  Energy initial, next-to-last, final = 
        -18273.8299988     -18273.8936056     -18273.8936056
  Force two-norm initial, final = 1.25351 0.0957015
  Force max component initial, final = 0.123757 0.00844522
  Final line search alpha, max atom move = 9.53674e-07 8.05399e-09
  Iterations, force evaluations = 20 79

MPI task timing breakdown:
Section |  min time  |  avg time  |  max time  |%varavg| %total
---------------------------------------------------------------
Pair    | 0.08032    | 0.087884   | 0.092943   |   1.2 | 37.64
Kspace  | 0.12947    | 0.13138    | 0.13369    |   0.4 | 56.28
Neigh   | 0          | 0          | 0          |   0.0 |  0.00
Comm    | 0.0091391  | 0.012854   | 0.017995   |   2.3 |  5.51
Output  | 2.3127e-05 | 2.3782e-05 | 3.0994e-05 |   0.0 |  0.01
Modify  | 0          | 0          | 0          |   0.0 |  0.00
Other   |            | 0.00131    |            |       |  0.56

Nlocal:    84 ave 88 max 78 min
Histogram: 1 0 0 2 0 2 1 1 3 2
Nghost:    2604.08 ave 2627 max 2576 min
Histogram: 1 1 2 2 0 0 0 2 0 4
Neighs:    18638.1 ave 19375 max 17254 min
Histogram: 1 0 1 1 0 2 1 1 2 3

Total # of neighbors = 223657
Ave neighs/atom = 221.882
Neighbor list builds = 0
Dangerous builds = 0
Total wall time: 0:00:17
Done.
