LAMMPS (7 Dec 2015)
# Tantala heating to find melting temp. and glass transition temp.
# Intervals of 400 K (starting at 0 K) to be merged with the date from the even directory (also has intervals of 400 K starting at 200 K)
# Including rdf compute and initial velocity seed
# I've written a loop that makes melting/cooling simulation codes less tedious (In test directory input file)

# Initialization

units		metal
atom_style	charge
dimension	3
boundary	p p p

# Optional

neighbor	1.0 nsq
neigh_modify	every 1 delay 1 check yes

# Defining atomic system (896 atoms)

read_data	min1.dat
  triclinic box = (0 0 0) to (23.3007 23.3007 23.3007) with tilt (0 0 0)
  2 by 2 by 3 MPI processor grid
  reading atoms ...
  1008 atoms

# Potential

kspace_style	ewald 1.0e-6
#For low-temperature simulations, comment out the following line
#pair_style	hybrid/overlay lj246/cut 10 buck/coul/long 10 morse 10
#For low-temperature simulations, un-comment the following line
pair_style      hybrid/overlay buck/coul/long 10 morse 10

pair_coeff      1 2 buck/coul/long 100067.01 0.1319 6.05
pair_coeff      2 2 buck/coul/long 1388.773 0.3623188 175.0000
pair_coeff      1 1 buck/coul/long 0.00000000 1.0000000 0.000000
pair_coeff	2 3 buck/coul/long 17243.00 0.2265 128.35
pair_coeff      1 3 buck/coul/long 0.00000000 1.0000000 0.000000
pair_coeff      3 3 buck/coul/long 0.00000000 1.0000000 0.000000
pair_coeff 	1 2 morse 	   0.3789 1.6254 2.5445
#Remove these lines if running low-temperature simulation
#pair_coeff      1 2 lj246/cut	   0.01 0.51
#pair_coeff	2 2 lj246/cut 	   0.00035653 1.9000

# MD parameters

#1 fs timestep
timestep 0.001
thermo		50

fix		1 all nvt temp 10 10 0.1
velocity	all create 10 26684

load_tls min1.dump 1 0
  triclinic box = (0 0 0) to (23.3007 23.3007 23.3007) with tilt (0 0 0)
  1008 atoms before read
  1008 atoms in snapshot
  0 atoms purged
  1008 atoms replaced
  0 atoms trimmed
  0 atoms added
  1008 atoms after read
load_tls min2.dump 2 0
  triclinic box = (0 0 0) to (23.3007 23.3007 23.3007) with tilt (0 0 0)
  1008 atoms before read
  1008 atoms in snapshot
  0 atoms purged
  1008 atoms replaced
  0 atoms trimmed
  0 atoms added
  1008 atoms after read
couple_elastic 0.005 linear
  triclinic box = (0.0582517 0 0) to (23.2424 23.3007 23.3007) with tilt (0 0 0)
WARNING: Resetting reneighboring criteria during minimization (../min.cpp:168)
Ewald initialization ...
  G vector (1/distance) = 0.365089
  estimated absolute RMS force accuracy = 1.92191e-05
  estimated relative force accuracy = 1.33469e-06
  KSpace vectors: actual max1d max3d = 2088 10 4630
                  kxmax kymax kzmax  = 10 10 10
Neighbor list info ...
  2 neighbor list requests
  update every 1 steps, delay 0 steps, check yes
  max neighbors/atom: 2000, page size: 100000
  master list distance cutoff = 11
  ghost atom cutoff = 11
Memory usage per processor = 4.56149 Mbytes
Step Temp E_pair E_mol TotEng Press 
       0           10   -18273.739            0   -18272.437    7033.7556 
      25           10   -18273.896            0   -18272.594     3363.841 
Loop time of 0.294043 on 12 procs for 25 steps with 1008 atoms

99.7% CPU use with 12 MPI tasks x no OpenMP threads

Minimization stats:
  Stopping criterion = linesearch alpha is zero
  Energy initial, next-to-last, final = 
        -18273.7389612     -18273.8956686     -18273.8956686
  Force two-norm initial, final = 1.85236 0.102384
  Force max component initial, final = 0.17103 0.00823218
  Final line search alpha, max atom move = 9.53674e-07 7.85081e-09
  Iterations, force evaluations = 25 95

MPI task timing breakdown:
Section |  min time  |  avg time  |  max time  |%varavg| %total
---------------------------------------------------------------
Pair    | 0.096845   | 0.10606    | 0.11624    |   1.5 | 36.07
Kspace  | 0.15822    | 0.16393    | 0.1672     |   0.7 | 55.75
Neigh   | 0          | 0          | 0          |   0.0 |  0.00
Comm    | 0.01543    | 0.020299   | 0.026919   |   2.6 |  6.90
Output  | 0          | 0          | 0          |   0.0 |  0.00
Modify  | 0          | 0          | 0          |   0.0 |  0.00
Other   |            | 0.003753   |            |       |  1.28

Nlocal:    84 ave 89 max 78 min
Histogram: 1 0 1 0 2 4 1 1 1 1
Nghost:    2615.75 ave 2628 max 2597 min
Histogram: 2 1 0 1 1 1 0 1 0 5
Neighs:    18723.9 ave 19902 max 17318 min
Histogram: 1 0 1 0 3 3 1 1 1 1

Total # of neighbors = 224687
Ave neighs/atom = 222.904
Neighbor list builds = 0
Dangerous builds = 0
  triclinic box = (0.0388306 0 0) to (23.2618 23.3007 23.3007) with tilt (0 0 0)
WARNING: Resetting reneighboring criteria during minimization (../min.cpp:168)
Ewald initialization ...
  G vector (1/distance) = 0.365078
  estimated absolute RMS force accuracy = 1.92793e-05
  estimated relative force accuracy = 1.33888e-06
  KSpace vectors: actual max1d max3d = 2084 10 4630
                  kxmax kymax kzmax  = 10 10 10
Memory usage per processor = 4.56149 Mbytes
Step Temp E_pair E_mol TotEng Press 
      25           10   -18273.873            0   -18272.572    3420.6747 
      38           10   -18273.942            0    -18272.64    1120.2594 
Loop time of 0.213324 on 12 procs for 13 steps with 1008 atoms

99.6% CPU use with 12 MPI tasks x no OpenMP threads

Minimization stats:
  Stopping criterion = linesearch alpha is zero
  Energy initial, next-to-last, final = 
        -18273.8732167     -18273.9420308     -18273.9420308
  Force two-norm initial, final = 1.22714 0.178985
  Force max component initial, final = 0.112969 0.0280315
  Final line search alpha, max atom move = 2.38419e-07 6.68323e-09
  Iterations, force evaluations = 13 69

MPI task timing breakdown:
Section |  min time  |  avg time  |  max time  |%varavg| %total
---------------------------------------------------------------
Pair    | 0.072927   | 0.077699   | 0.084752   |   1.1 | 36.42
Kspace  | 0.11612    | 0.11946    | 0.12281    |   0.6 | 56.00
Neigh   | 0          | 0          | 0          |   0.0 |  0.00
Comm    | 0.0099056  | 0.013755   | 0.019125   |   2.0 |  6.45
Output  | 0          | 0          | 0          |   0.0 |  0.00
Modify  | 0          | 0          | 0          |   0.0 |  0.00
Other   |            | 0.002412   |            |       |  1.13

Nlocal:    84 ave 89 max 78 min
Histogram: 1 0 1 0 2 4 1 1 1 1
Nghost:    2608.58 ave 2619 max 2592 min
Histogram: 1 1 1 0 0 2 1 2 2 2
Neighs:    18693.2 ave 19872 max 17299 min
Histogram: 1 0 1 0 3 3 1 1 1 1

Total # of neighbors = 224319
Ave neighs/atom = 222.539
Neighbor list builds = 0
Dangerous builds = 0
  triclinic box = (0.0194211 0 0) to (23.2813 23.3007 23.3007) with tilt (0 0 0)
WARNING: Resetting reneighboring criteria during minimization (../min.cpp:168)
Ewald initialization ...
  G vector (1/distance) = 0.365066
  estimated absolute RMS force accuracy = 1.9345e-05
  estimated relative force accuracy = 1.34344e-06
  KSpace vectors: actual max1d max3d = 2084 10 4630
                  kxmax kymax kzmax  = 10 10 10
Memory usage per processor = 4.56149 Mbytes
Step Temp E_pair E_mol TotEng Press 
      38           10   -18273.926            0   -18272.624   -153.16257 
      47           10   -18273.943            0   -18272.641   -1229.3926 
Loop time of 0.180138 on 12 procs for 9 steps with 1008 atoms

99.8% CPU use with 12 MPI tasks x no OpenMP threads

Minimization stats:
  Stopping criterion = linesearch alpha is zero
  Energy initial, next-to-last, final = 
        -18273.9258514     -18273.9429963     -18273.9429963
  Force two-norm initial, final = 0.609513 0.124816
  Force max component initial, final = 0.0559264 0.017049
  Final line search alpha, max atom move = 4.76837e-07 8.1296e-09
  Iterations, force evaluations = 9 59

MPI task timing breakdown:
Section |  min time  |  avg time  |  max time  |%varavg| %total
---------------------------------------------------------------
Pair    | 0.0622     | 0.065908   | 0.072173   |   1.0 | 36.59
Kspace  | 0.097568   | 0.10076    | 0.10337    |   0.5 | 55.94
Neigh   | 0          | 0          | 0          |   0.0 |  0.00
Comm    | 0.0085528  | 0.011687   | 0.016168   |   1.9 |  6.49
Output  | 0          | 0          | 0          |   0.0 |  0.00
Modify  | 0          | 0          | 0          |   0.0 |  0.00
Other   |            | 0.001781   |            |       |  0.99

Nlocal:    84 ave 89 max 78 min
Histogram: 1 0 1 0 2 4 1 1 1 1
Nghost:    2607.58 ave 2617 max 2592 min
Histogram: 1 0 2 0 0 0 3 1 3 2
Neighs:    18662.4 ave 19835 max 17270 min
Histogram: 1 0 1 0 3 3 1 1 1 1

Total # of neighbors = 223949
Ave neighs/atom = 222.172
Neighbor list builds = 0
Dangerous builds = 0
  triclinic box = (0 0 0) to (23.3007 23.3007 23.3007) with tilt (0 0 0)
WARNING: Resetting reneighboring criteria during minimization (../min.cpp:168)
Ewald initialization ...
  G vector (1/distance) = 0.365055
  estimated absolute RMS force accuracy = 1.94166e-05
  estimated relative force accuracy = 1.34841e-06
  KSpace vectors: actual max1d max3d = 2084 10 4630
                  kxmax kymax kzmax  = 10 10 10
Memory usage per processor = 4.56149 Mbytes
Step Temp E_pair E_mol TotEng Press 
      47           10   -18273.895            0   -18272.593   -3691.4663 
      48           10   -18273.895            0   -18272.593   -3691.4663 
Loop time of 0.0720607 on 12 procs for 1 steps with 1008 atoms

99.9% CPU use with 12 MPI tasks x no OpenMP threads

Minimization stats:
  Stopping criterion = linesearch alpha is zero
  Energy initial, next-to-last, final = 
        -18273.8947691     -18273.8947691     -18273.8947691
  Force two-norm initial, final = 0.00471619 0.00471619
  Force max component initial, final = 0.000341508 0.000341508
  Final line search alpha, max atom move = 0.000488281 1.66752e-07
  Iterations, force evaluations = 1 23

MPI task timing breakdown:
Section |  min time  |  avg time  |  max time  |%varavg| %total
---------------------------------------------------------------
Pair    | 0.024564   | 0.026407   | 0.029084   |   0.7 | 36.64
Kspace  | 0.039397   | 0.040534   | 0.041391   |   0.3 | 56.25
Neigh   | 0          | 0          | 0          |   0.0 |  0.00
Comm    | 0.002969   | 0.0045146  | 0.0064497  |   1.3 |  6.27
Output  | 0          | 0          | 0          |   0.0 |  0.00
Modify  | 0          | 0          | 0          |   0.0 |  0.00
Other   |            | 0.000605   |            |       |  0.84

Nlocal:    84 ave 89 max 78 min
Histogram: 1 0 1 0 2 4 1 1 1 1
Nghost:    2604.25 ave 2616 max 2587 min
Histogram: 1 1 1 0 0 2 2 1 2 2
Neighs:    18631.3 ave 19808 max 17248 min
Histogram: 1 0 1 0 3 3 1 1 1 1

Total # of neighbors = 223576
Ave neighs/atom = 221.802
Neighbor list builds = 0
Dangerous builds = 0
  triclinic box = (-0.0194211 0 0) to (23.3201 23.3007 23.3007) with tilt (0 0 0)
WARNING: Resetting reneighboring criteria during minimization (../min.cpp:168)
Ewald initialization ...
  G vector (1/distance) = 0.365044
  estimated absolute RMS force accuracy = 1.94944e-05
  estimated relative force accuracy = 1.35381e-06
  KSpace vectors: actual max1d max3d = 2084 10 4630
                  kxmax kymax kzmax  = 10 10 10
Memory usage per processor = 4.56149 Mbytes
Step Temp E_pair E_mol TotEng Press 
      48           10   -18273.781            0    -18272.48   -7192.6293 
      50           10   -18273.792            0    -18272.49   -6597.6341 
      62           10   -18273.799            0   -18272.497   -6042.7294 
Loop time of 0.207481 on 12 procs for 14 steps with 1008 atoms

99.9% CPU use with 12 MPI tasks x no OpenMP threads

Minimization stats:
  Stopping criterion = linesearch alpha is zero
  Energy initial, next-to-last, final = 
        -18273.7811711     -18273.7991278     -18273.7991278
  Force two-norm initial, final = 0.605335 0.081037
  Force max component initial, final = 0.0552108 0.0115558
  Final line search alpha, max atom move = 9.53674e-07 1.10205e-08
  Iterations, force evaluations = 14 67

MPI task timing breakdown:
Section |  min time  |  avg time  |  max time  |%varavg| %total
---------------------------------------------------------------
Pair    | 0.070654   | 0.075248   | 0.083144   |   1.1 | 36.27
Kspace  | 0.11202    | 0.11638    | 0.11855    |   0.5 | 56.09
Neigh   | 0          | 0          | 0          |   0.0 |  0.00
Comm    | 0.0099187  | 0.013583   | 0.01896    |   2.0 |  6.55
Output  | 3.5048e-05 | 3.6836e-05 | 4.6015e-05 |   0.0 |  0.02
Modify  | 0          | 0          | 0          |   0.0 |  0.00
Other   |            | 0.002237   |            |       |  1.08

Nlocal:    84 ave 89 max 78 min
Histogram: 1 0 1 0 2 4 1 1 1 1
Nghost:    2601.5 ave 2612 max 2584 min
Histogram: 1 1 1 0 1 1 1 1 2 3
Neighs:    18599.9 ave 19775 max 17222 min
Histogram: 1 0 1 0 3 3 1 1 1 1

Total # of neighbors = 223199
Ave neighs/atom = 221.428
Neighbor list builds = 0
Dangerous builds = 0
  triclinic box = (-0.0388306 0 0) to (23.3395 23.3007 23.3007) with tilt (0 0 0)
WARNING: Resetting reneighboring criteria during minimization (../min.cpp:168)
Ewald initialization ...
  G vector (1/distance) = 0.365032
  estimated absolute RMS force accuracy = 1.95788e-05
  estimated relative force accuracy = 1.35968e-06
  KSpace vectors: actual max1d max3d = 2084 10 4630
                  kxmax kymax kzmax  = 10 10 10
Memory usage per processor = 4.56149 Mbytes
Step Temp E_pair E_mol TotEng Press 
      62           10   -18273.587            0   -18272.285   -10655.106 
      93           10    -18273.66            0   -18272.359   -8262.8815 
Loop time of 0.3013 on 12 procs for 31 steps with 1008 atoms

99.7% CPU use with 12 MPI tasks x no OpenMP threads

Minimization stats:
  Stopping criterion = linesearch alpha is zero
  Energy initial, next-to-last, final = 
        -18273.5865112     -18273.6604076     -18273.6604076
  Force two-norm initial, final = 1.20207 0.0561889
  Force max component initial, final = 0.109299 0.00765119
  Final line search alpha, max atom move = 3.8147e-06 2.9187e-08
  Iterations, force evaluations = 31 97

MPI task timing breakdown:
Section |  min time  |  avg time  |  max time  |%varavg| %total
---------------------------------------------------------------
Pair    | 0.10041    | 0.10848    | 0.11961    |   1.3 | 36.01
Kspace  | 0.16213    | 0.16863    | 0.17159    |   0.6 | 55.97
Neigh   | 0          | 0          | 0          |   0.0 |  0.00
Comm    | 0.015334   | 0.020195   | 0.027527   |   2.3 |  6.70
Output  | 0          | 0          | 0          |   0.0 |  0.00
Modify  | 0          | 0          | 0          |   0.0 |  0.00
Other   |            | 0.003993   |            |       |  1.33

Nlocal:    84 ave 89 max 78 min
Histogram: 1 0 1 0 2 4 1 1 1 1
Nghost:    2598 ave 2610 max 2581 min
Histogram: 1 2 0 0 1 2 0 2 1 3
Neighs:    18567.9 ave 19739 max 17194 min
Histogram: 1 0 1 0 3 3 1 1 1 1

Total # of neighbors = 222815
Ave neighs/atom = 221.047
Neighbor list builds = 0
Dangerous builds = 0
  triclinic box = (-0.0582517 0 0) to (23.3589 23.3007 23.3007) with tilt (0 0 0)
WARNING: Resetting reneighboring criteria during minimization (../min.cpp:168)
Ewald initialization ...
  G vector (1/distance) = 0.365021
  estimated absolute RMS force accuracy = 1.96704e-05
  estimated relative force accuracy = 1.36604e-06
  KSpace vectors: actual max1d max3d = 2084 10 4630
                  kxmax kymax kzmax  = 10 10 10
Memory usage per processor = 4.56149 Mbytes
Step Temp E_pair E_mol TotEng Press 
      93           10   -18273.312            0    -18272.01    -14083.41 
     100           10   -18273.444            0   -18272.142   -10972.221 
     108           10   -18273.461            0   -18272.159   -10663.588 
Loop time of 0.229677 on 12 procs for 15 steps with 1008 atoms

99.7% CPU use with 12 MPI tasks x no OpenMP threads

Minimization stats:
  Stopping criterion = linesearch alpha is zero
  Energy initial, next-to-last, final = 
        -18273.3117166     -18273.4605105     -18273.4605105
  Force two-norm initial, final = 1.79243 0.224082
  Force max component initial, final = 0.162458 0.0296452
  Final line search alpha, max atom move = 2.38419e-07 7.06797e-09
  Iterations, force evaluations = 15 73

MPI task timing breakdown:
Section |  min time  |  avg time  |  max time  |%varavg| %total
---------------------------------------------------------------
Pair    | 0.076792   | 0.081857   | 0.091134   |   1.2 | 35.64
Kspace  | 0.12364    | 0.12928    | 0.13213    |   0.6 | 56.29
Neigh   | 0          | 0          | 0          |   0.0 |  0.00
Comm    | 0.011859   | 0.015747   | 0.02157    |   2.0 |  6.86
Output  | 3.3855e-05 | 3.5365e-05 | 4.5061e-05 |   0.0 |  0.02
Modify  | 0          | 0          | 0          |   0.0 |  0.00
Other   |            | 0.002761   |            |       |  1.20

Nlocal:    84 ave 89 max 78 min
Histogram: 1 0 1 0 2 4 1 1 1 1
Nghost:    2592.58 ave 2607 max 2577 min
Histogram: 2 2 0 0 2 0 0 2 1 3
Neighs:    18538 ave 19702 max 17162 min
Histogram: 1 0 1 0 3 3 1 1 1 1

Total # of neighbors = 222456
Ave neighs/atom = 220.69
Neighbor list builds = 0
Dangerous builds = 0
  triclinic box = (0 0.0582517 0) to (23.3007 23.2424 23.3007) with tilt (0 0 0)
WARNING: Resetting reneighboring criteria during minimization (../min.cpp:168)
Ewald initialization ...
  G vector (1/distance) = 0.365089
  estimated absolute RMS force accuracy = 1.92191e-05
  estimated relative force accuracy = 1.33469e-06
  KSpace vectors: actual max1d max3d = 2088 10 4630
                  kxmax kymax kzmax  = 10 10 10
Memory usage per processor = 4.56149 Mbytes
Step Temp E_pair E_mol TotEng Press 
     108           10   -18273.695            0   -18272.393    7073.4983 
     124           10   -18273.844            0   -18272.542    3635.3576 
Loop time of 0.234065 on 12 procs for 16 steps with 1008 atoms

100.0% CPU use with 12 MPI tasks x no OpenMP threads

Minimization stats:
  Stopping criterion = linesearch alpha is zero
  Energy initial, next-to-last, final = 
         -18273.694719     -18273.8435705     -18273.8435705
  Force two-norm initial, final = 1.78059 0.203027
  Force max component initial, final = 0.166903 0.0223753
  Final line search alpha, max atom move = 2.38419e-07 5.3347e-09
  Iterations, force evaluations = 16 75

MPI task timing breakdown:
Section |  min time  |  avg time  |  max time  |%varavg| %total
---------------------------------------------------------------
Pair    | 0.080753   | 0.085341   | 0.093448   |   1.1 | 36.46
Kspace  | 0.12701    | 0.13082    | 0.13358    |   0.5 | 55.89
Neigh   | 0          | 0          | 0          |   0.0 |  0.00
Comm    | 0.011178   | 0.015548   | 0.021421   |   2.2 |  6.64
Output  | 0          | 0          | 0          |   0.0 |  0.00
Modify  | 0          | 0          | 0          |   0.0 |  0.00
Other   |            | 0.002359   |            |       |  1.01

Nlocal:    84 ave 89 max 78 min
Histogram: 1 0 1 0 2 4 1 1 1 1
Nghost:    2614.08 ave 2626 max 2597 min
Histogram: 2 0 1 1 1 1 0 2 1 3
Neighs:    18729.3 ave 19914 max 17335 min
Histogram: 1 0 1 0 3 3 1 1 1 1

Total # of neighbors = 224752
Ave neighs/atom = 222.968
Neighbor list builds = 0
Dangerous builds = 0
  triclinic box = (0 0.0388306 0) to (23.3007 23.2618 23.3007) with tilt (0 0 0)
WARNING: Resetting reneighboring criteria during minimization (../min.cpp:168)
Ewald initialization ...
  G vector (1/distance) = 0.365078
  estimated absolute RMS force accuracy = 1.92793e-05
  estimated relative force accuracy = 1.33888e-06
  KSpace vectors: actual max1d max3d = 2084 10 4630
                  kxmax kymax kzmax  = 10 10 10
Memory usage per processor = 4.56149 Mbytes
Step Temp E_pair E_mol TotEng Press 
     124           10   -18273.849            0   -18272.548     3445.614 
     135           10   -18273.911            0   -18272.609    1260.6907 
Loop time of 0.204187 on 12 procs for 11 steps with 1008 atoms

99.8% CPU use with 12 MPI tasks x no OpenMP threads

Minimization stats:
  Stopping criterion = linesearch alpha is zero
  Energy initial, next-to-last, final = 
        -18273.8493761     -18273.9108739     -18273.9108739
  Force two-norm initial, final = 1.17967 0.19664
  Force max component initial, final = 0.110312 0.0205344
  Final line search alpha, max atom move = 2.38419e-07 4.89579e-09
  Iterations, force evaluations = 11 65

MPI task timing breakdown:
Section |  min time  |  avg time  |  max time  |%varavg| %total
---------------------------------------------------------------
Pair    | 0.070941   | 0.074824   | 0.082031   |   1.1 | 36.65
Kspace  | 0.11004    | 0.11368    | 0.116      |   0.5 | 55.67
Neigh   | 0          | 0          | 0          |   0.0 |  0.00
Comm    | 0.0099051  | 0.013572   | 0.018034   |   2.3 |  6.65
Output  | 0          | 0          | 0          |   0.0 |  0.00
Modify  | 0          | 0          | 0          |   0.0 |  0.00
Other   |            | 0.002115   |            |       |  1.04

Nlocal:    84 ave 89 max 78 min
Histogram: 1 0 1 0 2 4 1 1 1 1
Nghost:    2609.42 ave 2623 max 2593 min
Histogram: 2 0 1 0 1 2 1 3 0 2
Neighs:    18699.2 ave 19878 max 17311 min
Histogram: 1 0 1 0 3 3 1 1 1 1

Total # of neighbors = 224390
Ave neighs/atom = 222.609
Neighbor list builds = 0
Dangerous builds = 0
  triclinic box = (0 0.0194211 0) to (23.3007 23.2813 23.3007) with tilt (0 0 0)
WARNING: Resetting reneighboring criteria during minimization (../min.cpp:168)
Ewald initialization ...
  G vector (1/distance) = 0.365066
  estimated absolute RMS force accuracy = 1.9345e-05
  estimated relative force accuracy = 1.34344e-06
  KSpace vectors: actual max1d max3d = 2084 10 4630
                  kxmax kymax kzmax  = 10 10 10
Memory usage per processor = 4.56149 Mbytes
Step Temp E_pair E_mol TotEng Press 
     135           10   -18273.918            0   -18272.616   -141.71743 
     146           10   -18273.931            0    -18272.63   -1222.8585 
Loop time of 0.194837 on 12 procs for 11 steps with 1008 atoms

99.7% CPU use with 12 MPI tasks x no OpenMP threads

Minimization stats:
  Stopping criterion = linesearch alpha is zero
  Energy initial, next-to-last, final = 
        -18273.9179473     -18273.9314292     -18273.9314292
  Force two-norm initial, final = 0.585959 0.0975705
  Force max component initial, final = 0.0546591 0.0109215
  Final line search alpha, max atom move = 9.53674e-07 1.04155e-08
  Iterations, force evaluations = 11 61

MPI task timing breakdown:
Section |  min time  |  avg time  |  max time  |%varavg| %total
---------------------------------------------------------------
Pair    | 0.065423   | 0.070184   | 0.077392   |   1.1 | 36.02
Kspace  | 0.10367    | 0.10841    | 0.11072    |   0.6 | 55.64
Neigh   | 0          | 0          | 0          |   0.0 |  0.00
Comm    | 0.010508   | 0.013628   | 0.018045   |   1.8 |  6.99
Output  | 0          | 0          | 0          |   0.0 |  0.00
Modify  | 0          | 0          | 0          |   0.0 |  0.00
Other   |            | 0.002617   |            |       |  1.34

Nlocal:    84 ave 89 max 78 min
Histogram: 1 0 1 0 2 4 1 1 1 1
Nghost:    2606 ave 2618 max 2591 min
Histogram: 2 1 0 0 2 1 1 1 3 1
Neighs:    18664.5 ave 19843 max 17280 min
Histogram: 1 0 1 0 3 3 1 1 1 1

Total # of neighbors = 223974
Ave neighs/atom = 222.196
Neighbor list builds = 0
Dangerous builds = 0
  triclinic box = (0 0 0) to (23.3007 23.3007 23.3007) with tilt (0 0 0)
WARNING: Resetting reneighboring criteria during minimization (../min.cpp:168)
Ewald initialization ...
  G vector (1/distance) = 0.365055
  estimated absolute RMS force accuracy = 1.94166e-05
  estimated relative force accuracy = 1.34841e-06
  KSpace vectors: actual max1d max3d = 2084 10 4630
                  kxmax kymax kzmax  = 10 10 10
Memory usage per processor = 4.56149 Mbytes
Step Temp E_pair E_mol TotEng Press 
     146           10   -18273.895            0   -18272.593   -3691.4663 
     147           10   -18273.895            0   -18272.593   -3691.4663 
Loop time of 0.0744646 on 12 procs for 1 steps with 1008 atoms

99.9% CPU use with 12 MPI tasks x no OpenMP threads

Minimization stats:
  Stopping criterion = linesearch alpha is zero
  Energy initial, next-to-last, final = 
        -18273.8947691     -18273.8947691     -18273.8947691
  Force two-norm initial, final = 0.00471619 0.00471619
  Force max component initial, final = 0.000341508 0.000341508
  Final line search alpha, max atom move = 0.000488281 1.66752e-07
  Iterations, force evaluations = 1 23

MPI task timing breakdown:
Section |  min time  |  avg time  |  max time  |%varavg| %total
---------------------------------------------------------------
Pair    | 0.025909   | 0.027095   | 0.029801   |   0.6 | 36.39
Kspace  | 0.039923   | 0.041387   | 0.042435   |   0.3 | 55.58
Neigh   | 0          | 0          | 0          |   0.0 |  0.00
Comm    | 0.0038242  | 0.0051088  | 0.0067997  |   1.3 |  6.86
Output  | 0          | 0          | 0          |   0.0 |  0.00
Modify  | 0          | 0          | 0          |   0.0 |  0.00
Other   |            | 0.0008737  |            |       |  1.17

Nlocal:    84 ave 89 max 78 min
Histogram: 1 0 1 0 2 4 1 1 1 1
Nghost:    2604.25 ave 2616 max 2587 min
Histogram: 1 1 1 0 0 2 2 1 2 2
Neighs:    18631.3 ave 19808 max 17248 min
Histogram: 1 0 1 0 3 3 1 1 1 1

Total # of neighbors = 223576
Ave neighs/atom = 221.802
Neighbor list builds = 0
Dangerous builds = 0
  triclinic box = (0 -0.0194211 0) to (23.3007 23.3201 23.3007) with tilt (0 0 0)
WARNING: Resetting reneighboring criteria during minimization (../min.cpp:168)
Ewald initialization ...
  G vector (1/distance) = 0.365044
  estimated absolute RMS force accuracy = 1.94944e-05
  estimated relative force accuracy = 1.35381e-06
  KSpace vectors: actual max1d max3d = 2084 10 4630
                  kxmax kymax kzmax  = 10 10 10
Memory usage per processor = 4.56149 Mbytes
Step Temp E_pair E_mol TotEng Press 
     147           10   -18273.793            0   -18272.491   -7204.7824 
     150           10   -18273.805            0   -18272.503   -6429.6276 
     158           10   -18273.808            0   -18272.507    -6114.209 
Loop time of 0.218736 on 12 procs for 11 steps with 1008 atoms

99.6% CPU use with 12 MPI tasks x no OpenMP threads

Minimization stats:
  Stopping criterion = linesearch alpha is zero
  Energy initial, next-to-last, final = 
        -18273.7926425     -18273.8084335     -18273.8084335
  Force two-norm initial, final = 0.582123 0.0985832
  Force max component initial, final = 0.054019 0.0123708
  Final line search alpha, max atom move = 9.53674e-07 1.17977e-08
  Iterations, force evaluations = 11 69

MPI task timing breakdown:
Section |  min time  |  avg time  |  max time  |%varavg| %total
---------------------------------------------------------------
Pair    | 0.074297   | 0.078858   | 0.08711    |   1.1 | 36.05
Kspace  | 0.11745    | 0.12298    | 0.12583    |   0.7 | 56.22
Neigh   | 0          | 0          | 0          |   0.0 |  0.00
Comm    | 0.010806   | 0.014326   | 0.019334   |   1.9 |  6.55
Output  | 3.2902e-05 | 3.4769e-05 | 4.6015e-05 |   0.1 |  0.02
Modify  | 0          | 0          | 0          |   0.0 |  0.00
Other   |            | 0.002534   |            |       |  1.16

Nlocal:    84 ave 89 max 78 min
Histogram: 1 0 1 0 2 4 1 1 1 1
Nghost:    2597.83 ave 2609 max 2580 min
Histogram: 1 0 2 0 0 0 2 4 1 2
Neighs:    18598 ave 19767 max 17217 min
Histogram: 1 0 1 0 3 3 1 1 1 1

Total # of neighbors = 223176
Ave neighs/atom = 221.405
Neighbor list builds = 0
Dangerous builds = 0
  triclinic box = (0 -0.0388306 0) to (23.3007 23.3395 23.3007) with tilt (0 0 0)
WARNING: Resetting reneighboring criteria during minimization (../min.cpp:168)
Ewald initialization ...
  G vector (1/distance) = 0.365032
  estimated absolute RMS force accuracy = 1.95788e-05
  estimated relative force accuracy = 1.35968e-06
  KSpace vectors: actual max1d max3d = 2084 10 4630
                  kxmax kymax kzmax  = 10 10 10
Memory usage per processor = 4.56149 Mbytes
Step Temp E_pair E_mol TotEng Press 
     158           10   -18273.608            0   -18272.306   -10678.822 
     176           10   -18273.672            0    -18272.37    -8399.034 
Loop time of 0.239622 on 12 procs for 18 steps with 1008 atoms

99.7% CPU use with 12 MPI tasks x no OpenMP threads

Minimization stats:
  Stopping criterion = linesearch alpha is zero
  Energy initial, next-to-last, final = 
        -18273.6078909     -18273.6718358     -18273.6718358
  Force two-norm initial, final = 1.15604 0.115424
  Force max component initial, final = 0.107006 0.00882733
  Final line search alpha, max atom move = 4.76837e-07 4.2092e-09
  Iterations, force evaluations = 18 77

MPI task timing breakdown:
Section |  min time  |  avg time  |  max time  |%varavg| %total
---------------------------------------------------------------
Pair    | 0.082721   | 0.087115   | 0.095461   |   1.1 | 36.36
Kspace  | 0.12988    | 0.1343     | 0.13636    |   0.6 | 56.05
Neigh   | 0          | 0          | 0          |   0.0 |  0.00
Comm    | 0.011781   | 0.015795   | 0.021696   |   2.1 |  6.59
Output  | 0          | 0          | 0          |   0.0 |  0.00
Modify  | 0          | 0          | 0          |   0.0 |  0.00
Other   |            | 0.002409   |            |       |  1.01

Nlocal:    84 ave 89 max 78 min
Histogram: 1 0 1 0 2 4 1 1 1 1
Nghost:    2594.08 ave 2606 max 2574 min
Histogram: 1 1 1 0 0 1 1 4 1 2
Neighs:    18566.4 ave 19733 max 17188 min
Histogram: 1 0 1 0 3 3 1 1 1 1

Total # of neighbors = 222797
Ave neighs/atom = 221.029
Neighbor list builds = 0
Dangerous builds = 0
  triclinic box = (0 -0.0582517 0) to (23.3007 23.3589 23.3007) with tilt (0 0 0)
WARNING: Resetting reneighboring criteria during minimization (../min.cpp:168)
Ewald initialization ...
  G vector (1/distance) = 0.365021
  estimated absolute RMS force accuracy = 1.96704e-05
  estimated relative force accuracy = 1.36604e-06
  KSpace vectors: actual max1d max3d = 2084 10 4630
                  kxmax kymax kzmax  = 10 10 10
Memory usage per processor = 4.56149 Mbytes
Step Temp E_pair E_mol TotEng Press 
     176           10    -18273.34            0   -18272.038   -14117.835 
     195           10   -18273.488            0   -18272.186   -10700.948 
Loop time of 0.254695 on 12 procs for 19 steps with 1008 atoms

99.7% CPU use with 12 MPI tasks x no OpenMP threads

Minimization stats:
  Stopping criterion = linesearch alpha is zero
  Energy initial, next-to-last, final = 
        -18273.3400027     -18273.4875752     -18273.4875752
  Force two-norm initial, final = 1.72392 0.163751
  Force max component initial, final = 0.15916 0.0153529
  Final line search alpha, max atom move = 2.38419e-07 3.66042e-09
  Iterations, force evaluations = 19 81

MPI task timing breakdown:
Section |  min time  |  avg time  |  max time  |%varavg| %total
---------------------------------------------------------------
Pair    | 0.085553   | 0.091471   | 0.10113    |   1.3 | 35.91
Kspace  | 0.13796    | 0.14322    | 0.1456     |   0.5 | 56.23
Neigh   | 0          | 0          | 0          |   0.0 |  0.00
Comm    | 0.012722   | 0.01728    | 0.023303   |   2.3 |  6.78
Output  | 0          | 0          | 0          |   0.0 |  0.00
Modify  | 0          | 0          | 0          |   0.0 |  0.00
Other   |            | 0.002719   |            |       |  1.07

Nlocal:    84 ave 89 max 78 min
Histogram: 1 0 1 0 2 4 1 1 1 1
Nghost:    2590.33 ave 2603 max 2570 min
Histogram: 1 1 1 0 0 1 2 4 0 2
Neighs:    18536.7 ave 19694 max 17162 min
Histogram: 1 0 1 0 3 3 1 1 1 1

Total # of neighbors = 222440
Ave neighs/atom = 220.675
Neighbor list builds = 0
Dangerous builds = 0
  triclinic box = (0 0 0.0582517) to (23.3007 23.3007 23.2424) with tilt (0 0 0)
WARNING: Resetting reneighboring criteria during minimization (../min.cpp:168)
Ewald initialization ...
  G vector (1/distance) = 0.365089
  estimated absolute RMS force accuracy = 1.92191e-05
  estimated relative force accuracy = 1.33469e-06
  KSpace vectors: actual max1d max3d = 2088 10 4630
                  kxmax kymax kzmax  = 10 10 10
Memory usage per processor = 4.56149 Mbytes
Step Temp E_pair E_mol TotEng Press 
     195           10    -18273.85            0   -18272.548    6880.6623 
     200           10   -18273.965            0   -18272.663     4199.066 
     211           10   -18273.989            0   -18272.688    3383.4405 
Loop time of 0.235378 on 12 procs for 16 steps with 1008 atoms

99.7% CPU use with 12 MPI tasks x no OpenMP threads

Minimization stats:
  Stopping criterion = linesearch alpha is zero
  Energy initial, next-to-last, final = 
        -18273.8495776     -18273.9892876     -18273.9892876
  Force two-norm initial, final = 1.88386 0.181707
  Force max component initial, final = 0.166891 0.022662
  Final line search alpha, max atom move = 2.38419e-07 5.40303e-09
  Iterations, force evaluations = 16 75

MPI task timing breakdown:
Section |  min time  |  avg time  |  max time  |%varavg| %total
---------------------------------------------------------------
Pair    | 0.081826   | 0.085902   | 0.094426   |   1.1 | 36.50
Kspace  | 0.12654    | 0.13199    | 0.13576    |   0.7 | 56.08
Neigh   | 0          | 0          | 0          |   0.0 |  0.00
Comm    | 0.010741   | 0.01478    | 0.020264   |   2.1 |  6.28
Output  | 4.6968e-05 | 4.8379e-05 | 5.9128e-05 |   0.0 |  0.02
Modify  | 0          | 0          | 0          |   0.0 |  0.00
Other   |            | 0.002657   |            |       |  1.13

Nlocal:    84 ave 89 max 78 min
Histogram: 1 0 1 0 2 4 1 1 1 1
Nghost:    2618.25 ave 2645 max 2600 min
Histogram: 2 0 3 2 2 0 0 2 0 1
Neighs:    18725.8 ave 19915 max 17329 min
Histogram: 1 0 1 0 3 3 1 1 1 1

Total # of neighbors = 224710
Ave neighs/atom = 222.927
Neighbor list builds = 0
Dangerous builds = 0
  triclinic box = (0 0 0.0388306) to (23.3007 23.3007 23.2618) with tilt (0 0 0)
WARNING: Resetting reneighboring criteria during minimization (../min.cpp:168)
Ewald initialization ...
  G vector (1/distance) = 0.365078
  estimated absolute RMS force accuracy = 1.92793e-05
  estimated relative force accuracy = 1.33888e-06
  KSpace vectors: actual max1d max3d = 2084 10 4630
                  kxmax kymax kzmax  = 10 10 10
Memory usage per processor = 4.56149 Mbytes
Step Temp E_pair E_mol TotEng Press 
     211           10   -18273.949            0   -18272.648    3318.5138 
     228           10   -18274.014            0   -18272.712    1012.4251 
Loop time of 0.358525 on 12 procs for 17 steps with 1008 atoms

100.0% CPU use with 12 MPI tasks x no OpenMP threads

Minimization stats:
  Stopping criterion = linesearch alpha is zero
  Energy initial, next-to-last, final = 
        -18273.9492894     -18274.0136147     -18274.0136147
  Force two-norm initial, final = 1.24823 0.118351
  Force max component initial, final = 0.11054 0.013976
  Final line search alpha, max atom move = 4.76837e-07 6.66425e-09
  Iterations, force evaluations = 17 115

MPI task timing breakdown:
Section |  min time  |  avg time  |  max time  |%varavg| %total
---------------------------------------------------------------
Pair    | 0.12489    | 0.13054    | 0.14403    |   1.4 | 36.41
Kspace  | 0.1923     | 0.20091    | 0.20655    |   0.9 | 56.04
Neigh   | 0          | 0          | 0          |   0.0 |  0.00
Comm    | 0.016668   | 0.023154   | 0.03098    |   2.8 |  6.46
Output  | 0          | 0          | 0          |   0.0 |  0.00
Modify  | 0          | 0          | 0          |   0.0 |  0.00
Other   |            | 0.003917   |            |       |  1.09

Nlocal:    84 ave 89 max 78 min
Histogram: 1 0 1 0 2 4 1 1 1 1
Nghost:    2613 ave 2633 max 2594 min
Histogram: 2 0 1 0 3 2 2 0 1 1
Neighs:    18693.5 ave 19877 max 17296 min
Histogram: 1 0 1 0 3 3 1 1 1 1

Total # of neighbors = 224322
Ave neighs/atom = 222.542
Neighbor list builds = 0
Dangerous builds = 0
  triclinic box = (0 0 0.0194211) to (23.3007 23.3007 23.2813) with tilt (0 0 0)
WARNING: Resetting reneighboring criteria during minimization (../min.cpp:168)
Ewald initialization ...
  G vector (1/distance) = 0.365066
  estimated absolute RMS force accuracy = 1.9345e-05
  estimated relative force accuracy = 1.34344e-06
  KSpace vectors: actual max1d max3d = 2084 10 4630
                  kxmax kymax kzmax  = 10 10 10
Memory usage per processor = 4.56149 Mbytes
Step Temp E_pair E_mol TotEng Press 
     228           10   -18273.963            0   -18272.661   -203.70765 
     236           10   -18273.977            0   -18272.676   -1228.4342 
Loop time of 0.181054 on 12 procs for 8 steps with 1008 atoms

99.8% CPU use with 12 MPI tasks x no OpenMP threads

Minimization stats:
  Stopping criterion = linesearch alpha is zero
  Energy initial, next-to-last, final = 
        -18273.9626435     -18273.9773538     -18273.9773538
  Force two-norm initial, final = 0.620075 0.13625
  Force max component initial, final = 0.0549502 0.0146147
  Final line search alpha, max atom move = 4.76837e-07 6.96883e-09
  Iterations, force evaluations = 8 57

MPI task timing breakdown:
Section |  min time  |  avg time  |  max time  |%varavg| %total
---------------------------------------------------------------
Pair    | 0.061381   | 0.065032   | 0.07179    |   1.0 | 35.92
Kspace  | 0.097363   | 0.10145    | 0.10394    |   0.6 | 56.04
Neigh   | 0          | 0          | 0          |   0.0 |  0.00
Comm    | 0.0094936  | 0.012526   | 0.016663   |   2.1 |  6.92
Output  | 0          | 0          | 0          |   0.0 |  0.00
Modify  | 0          | 0          | 0          |   0.0 |  0.00
Other   |            | 0.002042   |            |       |  1.13

Nlocal:    84 ave 89 max 78 min
Histogram: 1 0 1 0 2 4 1 1 1 1
Nghost:    2607.75 ave 2622 max 2589 min
Histogram: 1 0 2 0 0 2 3 2 0 2
Neighs:    18661.3 ave 19840 max 17275 min
Histogram: 1 0 1 0 3 3 1 1 1 1

Total # of neighbors = 223936
Ave neighs/atom = 222.159
Neighbor list builds = 0
Dangerous builds = 0
  triclinic box = (0 0 0) to (23.3007 23.3007 23.3007) with tilt (0 0 0)
WARNING: Resetting reneighboring criteria during minimization (../min.cpp:168)
Ewald initialization ...
  G vector (1/distance) = 0.365055
  estimated absolute RMS force accuracy = 1.94166e-05
  estimated relative force accuracy = 1.34841e-06
  KSpace vectors: actual max1d max3d = 2084 10 4630
                  kxmax kymax kzmax  = 10 10 10
Memory usage per processor = 4.56149 Mbytes
Step Temp E_pair E_mol TotEng Press 
     236           10   -18273.895            0   -18272.593   -3691.4663 
     237           10   -18273.895            0   -18272.593   -3691.4663 
Loop time of 0.0735981 on 12 procs for 1 steps with 1008 atoms

99.3% CPU use with 12 MPI tasks x no OpenMP threads

Minimization stats:
  Stopping criterion = linesearch alpha is zero
  Energy initial, next-to-last, final = 
        -18273.8947691     -18273.8947691     -18273.8947691
  Force two-norm initial, final = 0.00471619 0.00471619
  Force max component initial, final = 0.000341508 0.000341508
  Final line search alpha, max atom move = 0.000488281 1.66752e-07
  Iterations, force evaluations = 1 23

MPI task timing breakdown:
Section |  min time  |  avg time  |  max time  |%varavg| %total
---------------------------------------------------------------
Pair    | 0.025652   | 0.027032   | 0.029642   |   0.6 | 36.73
Kspace  | 0.040155   | 0.0414     | 0.042435   |   0.3 | 56.25
Neigh   | 0          | 0          | 0          |   0.0 |  0.00
Comm    | 0.0031712  | 0.0045317  | 0.006382   |   1.2 |  6.16
Output  | 0          | 0          | 0          |   0.0 |  0.00
Modify  | 0          | 0          | 0          |   0.0 |  0.00
Other   |            | 0.0006346  |            |       |  0.86

Nlocal:    84 ave 89 max 78 min
Histogram: 1 0 1 0 2 4 1 1 1 1
Nghost:    2604.25 ave 2616 max 2587 min
Histogram: 1 1 1 0 0 2 2 1 2 2
Neighs:    18631.3 ave 19808 max 17248 min
Histogram: 1 0 1 0 3 3 1 1 1 1

Total # of neighbors = 223576
Ave neighs/atom = 221.802
Neighbor list builds = 0
Dangerous builds = 0
  triclinic box = (0 0 -0.0194211) to (23.3007 23.3007 23.3201) with tilt (0 0 0)
WARNING: Resetting reneighboring criteria during minimization (../min.cpp:168)
Ewald initialization ...
  G vector (1/distance) = 0.365044
  estimated absolute RMS force accuracy = 1.94944e-05
  estimated relative force accuracy = 1.35381e-06
  KSpace vectors: actual max1d max3d = 2084 10 4630
                  kxmax kymax kzmax  = 10 10 10
Memory usage per processor = 4.56149 Mbytes
Step Temp E_pair E_mol TotEng Press 
     237           10   -18273.747            0   -18272.446   -7143.3147 
     248           10   -18273.764            0   -18272.463    -6036.861 
Loop time of 0.191296 on 12 procs for 11 steps with 1008 atoms

99.9% CPU use with 12 MPI tasks x no OpenMP threads

Minimization stats:
  Stopping criterion = linesearch alpha is zero
  Energy initial, next-to-last, final = 
        -18273.7474447     -18273.7641594     -18273.7641594
  Force two-norm initial, final = 0.616156 0.0912829
  Force max component initial, final = 0.0541782 0.00809841
  Final line search alpha, max atom move = 9.53674e-07 7.72324e-09
  Iterations, force evaluations = 11 61

MPI task timing breakdown:
Section |  min time  |  avg time  |  max time  |%varavg| %total
---------------------------------------------------------------
Pair    | 0.065549   | 0.069708   | 0.076094   |   1.0 | 36.44
Kspace  | 0.10358    | 0.1074     | 0.10997    |   0.5 | 56.14
Neigh   | 0          | 0          | 0          |   0.0 |  0.00
Comm    | 0.008878   | 0.012113   | 0.016613   |   1.9 |  6.33
Output  | 0          | 0          | 0          |   0.0 |  0.00
Modify  | 0          | 0          | 0          |   0.0 |  0.00
Other   |            | 0.00208    |            |       |  1.09

Nlocal:    84 ave 89 max 78 min
Histogram: 1 0 1 0 2 4 1 1 1 1
Nghost:    2601.25 ave 2616 max 2583 min
Histogram: 2 0 1 0 1 2 1 2 1 2
Neighs:    18600.7 ave 19767 max 17218 min
Histogram: 1 0 1 0 3 3 1 1 1 1

Total # of neighbors = 223208
Ave neighs/atom = 221.437
Neighbor list builds = 0
Dangerous builds = 0
  triclinic box = (0 0 -0.0388306) to (23.3007 23.3007 23.3395) with tilt (0 0 0)
WARNING: Resetting reneighboring criteria during minimization (../min.cpp:168)
Ewald initialization ...
  G vector (1/distance) = 0.365032
  estimated absolute RMS force accuracy = 1.95788e-05
  estimated relative force accuracy = 1.35968e-06
  KSpace vectors: actual max1d max3d = 2084 10 4630
                  kxmax kymax kzmax  = 10 10 10
Memory usage per processor = 4.56149 Mbytes
Step Temp E_pair E_mol TotEng Press 
     248           10   -18273.519            0   -18272.218   -10557.045 
     250           10   -18273.559            0   -18272.257   -9458.7541 
     267           10   -18273.583            0   -18272.281   -8238.4641 
Loop time of 0.487156 on 12 procs for 19 steps with 1008 atoms

99.9% CPU use with 12 MPI tasks x no OpenMP threads

Minimization stats:
  Stopping criterion = linesearch alpha is zero
  Energy initial, next-to-last, final = 
        -18273.5194772     -18273.5825125     -18273.5825125
  Force two-norm initial, final = 1.22364 0.121695
  Force max component initial, final = 0.107755 0.0194165
  Final line search alpha, max atom move = 9.53674e-07 1.85171e-08
  Iterations, force evaluations = 19 155

MPI task timing breakdown:
Section |  min time  |  avg time  |  max time  |%varavg| %total
---------------------------------------------------------------
Pair    | 0.16626    | 0.17479    | 0.19244    |   1.6 | 35.88
Kspace  | 0.2612     | 0.27126    | 0.27705    |   0.8 | 55.68
Neigh   | 0          | 0          | 0          |   0.0 |  0.00
Comm    | 0.026276   | 0.034336   | 0.047549   |   3.0 |  7.05
Output  | 4.9114e-05 | 5.1578e-05 | 6.4135e-05 |   0.1 |  0.01
Modify  | 0          | 0          | 0          |   0.0 |  0.00
Other   |            | 0.006719   |            |       |  1.38

Nlocal:    84 ave 89 max 78 min
Histogram: 1 0 1 0 2 4 1 1 1 1
Nghost:    2599 ave 2614 max 2582 min
Histogram: 2 0 1 1 0 3 0 3 0 2
Neighs:    18570.1 ave 19739 max 17193 min
Histogram: 1 0 1 0 3 3 1 1 1 1

Total # of neighbors = 222841
Ave neighs/atom = 221.072
Neighbor list builds = 0
Dangerous builds = 0
  triclinic box = (0 0 -0.0582517) to (23.3007 23.3007 23.3589) with tilt (0 0 0)
WARNING: Resetting reneighboring criteria during minimization (../min.cpp:168)
Ewald initialization ...
  G vector (1/distance) = 0.365021
  estimated absolute RMS force accuracy = 1.96704e-05
  estimated relative force accuracy = 1.36604e-06
  KSpace vectors: actual max1d max3d = 2084 10 4630
                  kxmax kymax kzmax  = 10 10 10
Memory usage per processor = 4.56149 Mbytes
Step Temp E_pair E_mol TotEng Press 
     267           10   -18273.207            0   -18271.905    -13935.94 
     286           10   -18273.351            0   -18272.049   -10454.414 
Loop time of 0.255827 on 12 procs for 19 steps with 1008 atoms

100.0% CPU use with 12 MPI tasks x no OpenMP threads

Minimization stats:
  Stopping criterion = linesearch alpha is zero
  Energy initial, next-to-last, final = 
        -18273.2066771      -18273.351023      -18273.351023
  Force two-norm initial, final = 1.82492 0.162455
  Force max component initial, final = 0.160573 0.0230313
  Final line search alpha, max atom move = 2.38419e-07 5.49109e-09
  Iterations, force evaluations = 19 81

MPI task timing breakdown:
Section |  min time  |  avg time  |  max time  |%varavg| %total
---------------------------------------------------------------
Pair    | 0.087018   | 0.092459   | 0.10085    |   1.1 | 36.14
Kspace  | 0.13821    | 0.14274    | 0.14556    |   0.5 | 55.79
Neigh   | 0          | 0          | 0          |   0.0 |  0.00
Comm    | 0.012961   | 0.017137   | 0.023144   |   2.3 |  6.70
Output  | 0          | 0          | 0          |   0.0 |  0.00
Modify  | 0          | 0          | 0          |   0.0 |  0.00
Other   |            | 0.003494   |            |       |  1.37

Nlocal:    84 ave 89 max 78 min
Histogram: 1 0 1 0 2 4 1 1 1 1
Nghost:    2595.25 ave 2611 max 2576 min
Histogram: 2 0 0 2 1 1 2 2 0 2
Neighs:    18540.7 ave 19705 max 17171 min
Histogram: 1 0 1 0 3 3 1 1 1 1

Total # of neighbors = 222488
Ave neighs/atom = 220.722
Neighbor list builds = 0
Dangerous builds = 0
  triclinic box = (0 0 0) to (23.3007 23.3007 23.3007) with tilt (-0.116503 0 0)
WARNING: Resetting reneighboring criteria during minimization (../min.cpp:168)
Ewald initialization ...
  G vector (1/distance) = 0.365055
  estimated absolute RMS force accuracy = 1.94166e-05
  estimated relative force accuracy = 1.34841e-06
  KSpace vectors: actual max1d max3d = 2079 10 4630
                  kxmax kymax kzmax  = 10 10 10
Memory usage per processor = 4.56149 Mbytes
Step Temp E_pair E_mol TotEng Press 
     286           10   -18273.817            0   -18272.515    -3687.452 
     300           10   -18273.876            0   -18272.575   -3559.4192 
Loop time of 0.215613 on 12 procs for 14 steps with 1008 atoms

99.9% CPU use with 12 MPI tasks x no OpenMP threads

Minimization stats:
  Stopping criterion = linesearch alpha is zero
  Energy initial, next-to-last, final = 
        -18273.8168554      -18273.876461      -18273.876461
  Force two-norm initial, final = 1.22544 0.150086
  Force max component initial, final = 0.126317 0.0309761
  Final line search alpha, max atom move = 4.76837e-07 1.47705e-08
  Iterations, force evaluations = 14 69

MPI task timing breakdown:
Section |  min time  |  avg time  |  max time  |%varavg| %total
---------------------------------------------------------------
Pair    | 0.075084   | 0.078766   | 0.086447   |   1.0 | 36.53
Kspace  | 0.11635    | 0.12055    | 0.12338    |   0.6 | 55.91
Neigh   | 0          | 0          | 0          |   0.0 |  0.00
Comm    | 0.01048    | 0.014061   | 0.01946    |   2.0 |  6.52
Output  | 0          | 0          | 0          |   0.0 |  0.00
Modify  | 0          | 0          | 0          |   0.0 |  0.00
Other   |            | 0.002239   |            |       |  1.04

Nlocal:    84 ave 89 max 78 min
Histogram: 1 0 1 0 2 4 1 1 1 1
Nghost:    2604.25 ave 2616 max 2587 min
Histogram: 1 1 1 0 0 2 2 1 2 2
Neighs:    18633.2 ave 19800 max 17262 min
Histogram: 1 0 1 0 3 3 1 1 1 1

Total # of neighbors = 223598
Ave neighs/atom = 221.823
Neighbor list builds = 0
Dangerous builds = 0
  triclinic box = (0 0 0) to (23.3007 23.3007 23.3007) with tilt (-0.077661 0 0)
WARNING: Resetting reneighboring criteria during minimization (../min.cpp:168)
Ewald initialization ...
  G vector (1/distance) = 0.365055
  estimated absolute RMS force accuracy = 1.94166e-05
  estimated relative force accuracy = 1.34841e-06
  KSpace vectors: actual max1d max3d = 2081 10 4630
                  kxmax kymax kzmax  = 10 10 10
Memory usage per processor = 4.56149 Mbytes
Step Temp E_pair E_mol TotEng Press 
     300           10    -18273.87            0   -18272.569   -3693.2181 
     309           10   -18273.898            0   -18272.596   -3625.0536 
Loop time of 0.183465 on 12 procs for 9 steps with 1008 atoms

99.6% CPU use with 12 MPI tasks x no OpenMP threads

Minimization stats:
  Stopping criterion = linesearch alpha is zero
  Energy initial, next-to-last, final = 
        -18273.8702972     -18273.8978751     -18273.8978751
  Force two-norm initial, final = 0.816918 0.161739
  Force max component initial, final = 0.0841343 0.0212303
  Final line search alpha, max atom move = 4.76837e-07 1.01234e-08
  Iterations, force evaluations = 9 59

MPI task timing breakdown:
Section |  min time  |  avg time  |  max time  |%varavg| %total
---------------------------------------------------------------
Pair    | 0.06283    | 0.066869   | 0.073402   |   1.0 | 36.45
Kspace  | 0.099277   | 0.10297    | 0.10461    |   0.5 | 56.12
Neigh   | 0          | 0          | 0          |   0.0 |  0.00
Comm    | 0.0088835  | 0.011829   | 0.016268   |   1.8 |  6.45
Output  | 0          | 0          | 0          |   0.0 |  0.00
Modify  | 0          | 0          | 0          |   0.0 |  0.00
Other   |            | 0.001799   |            |       |  0.98

Nlocal:    84 ave 89 max 78 min
Histogram: 1 0 1 0 2 4 1 1 1 1
Nghost:    2604.25 ave 2616 max 2587 min
Histogram: 1 1 1 0 0 2 2 1 2 2
Neighs:    18631.5 ave 19803 max 17252 min
Histogram: 1 0 1 0 3 3 1 1 1 1

Total # of neighbors = 223578
Ave neighs/atom = 221.804
Neighbor list builds = 0
Dangerous builds = 0
  triclinic box = (0 0 0) to (23.3007 23.3007 23.3007) with tilt (-0.038842 0 0)
WARNING: Resetting reneighboring criteria during minimization (../min.cpp:168)
Ewald initialization ...
  G vector (1/distance) = 0.365055
  estimated absolute RMS force accuracy = 1.94166e-05
  estimated relative force accuracy = 1.34841e-06
  KSpace vectors: actual max1d max3d = 2082 10 4630
                  kxmax kymax kzmax  = 10 10 10
Memory usage per processor = 4.56149 Mbytes
Step Temp E_pair E_mol TotEng Press 
     309           10     -18273.9            0   -18272.599   -3695.5295 
     316           10   -18273.905            0   -18272.603   -3657.3412 
Loop time of 0.167829 on 12 procs for 7 steps with 1008 atoms

99.7% CPU use with 12 MPI tasks x no OpenMP threads

Minimization stats:
  Stopping criterion = linesearch alpha is zero
  Energy initial, next-to-last, final = 
        -18273.9002805     -18273.9045242     -18273.9045242
  Force two-norm initial, final = 0.408659 0.105482
  Force max component initial, final = 0.0420681 0.0155856
  Final line search alpha, max atom move = 9.53674e-07 1.48636e-08
  Iterations, force evaluations = 7 53

MPI task timing breakdown:
Section |  min time  |  avg time  |  max time  |%varavg| %total
---------------------------------------------------------------
Pair    | 0.057675   | 0.060709   | 0.066672   |   1.0 | 36.17
Kspace  | 0.089915   | 0.093105   | 0.095326   |   0.5 | 55.48
Neigh   | 0          | 0          | 0          |   0.0 |  0.00
Comm    | 0.0088782  | 0.01183    | 0.015599   |   2.0 |  7.05
Output  | 0          | 0          | 0          |   0.0 |  0.00
Modify  | 0          | 0          | 0          |   0.0 |  0.00
Other   |            | 0.002186   |            |       |  1.30

Nlocal:    84 ave 89 max 78 min
Histogram: 1 0 1 0 2 4 1 1 1 1
Nghost:    2604.25 ave 2616 max 2587 min
Histogram: 1 1 1 0 0 2 2 1 2 2
Neighs:    18630.2 ave 19805 max 17250 min
Histogram: 1 0 1 0 3 3 1 1 1 1

Total # of neighbors = 223562
Ave neighs/atom = 221.788
Neighbor list builds = 0
Dangerous builds = 0
  triclinic box = (0 0 0) to (23.3007 23.3007 23.3007) with tilt (0 0 0)
WARNING: Resetting reneighboring criteria during minimization (../min.cpp:168)
Ewald initialization ...
  G vector (1/distance) = 0.365055
  estimated absolute RMS force accuracy = 1.94166e-05
  estimated relative force accuracy = 1.34841e-06
  KSpace vectors: actual max1d max3d = 2084 10 4630
                  kxmax kymax kzmax  = 10 10 10
Memory usage per processor = 4.56149 Mbytes
Step Temp E_pair E_mol TotEng Press 
     316           10   -18273.895            0   -18272.593   -3691.4663 
     317           10   -18273.895            0   -18272.593   -3691.4663 
Loop time of 0.074548 on 12 procs for 1 steps with 1008 atoms

100.1% CPU use with 12 MPI tasks x no OpenMP threads

Minimization stats:
  Stopping criterion = linesearch alpha is zero
  Energy initial, next-to-last, final = 
        -18273.8947691     -18273.8947691     -18273.8947691
  Force two-norm initial, final = 0.00471619 0.00471619
  Force max component initial, final = 0.000341508 0.000341508
  Final line search alpha, max atom move = 0.000488281 1.66752e-07
  Iterations, force evaluations = 1 23

MPI task timing breakdown:
Section |  min time  |  avg time  |  max time  |%varavg| %total
---------------------------------------------------------------
Pair    | 0.025853   | 0.027059   | 0.029868   |   0.6 | 36.30
Kspace  | 0.040349   | 0.041736   | 0.042683   |   0.3 | 55.99
Neigh   | 0          | 0          | 0          |   0.0 |  0.00
Comm    | 0.0033963  | 0.0049061  | 0.0067153  |   1.3 |  6.58
Output  | 0          | 0          | 0          |   0.0 |  0.00
Modify  | 0          | 0          | 0          |   0.0 |  0.00
Other   |            | 0.0008469  |            |       |  1.14

Nlocal:    84 ave 89 max 78 min
Histogram: 1 0 1 0 2 4 1 1 1 1
Nghost:    2604.25 ave 2616 max 2587 min
Histogram: 1 1 1 0 0 2 2 1 2 2
Neighs:    18631.3 ave 19808 max 17248 min
Histogram: 1 0 1 0 3 3 1 1 1 1

Total # of neighbors = 223576
Ave neighs/atom = 221.802
Neighbor list builds = 0
Dangerous builds = 0
  triclinic box = (0 0 0) to (23.3007 23.3007 23.3007) with tilt (0.038842 0 0)
WARNING: Resetting reneighboring criteria during minimization (../min.cpp:168)
Ewald initialization ...
  G vector (1/distance) = 0.365055
  estimated absolute RMS force accuracy = 1.94166e-05
  estimated relative force accuracy = 1.34841e-06
  KSpace vectors: actual max1d max3d = 2082 10 4630
                  kxmax kymax kzmax  = 10 10 10
Memory usage per processor = 4.56149 Mbytes
Step Temp E_pair E_mol TotEng Press 
     317           10   -18273.866            0   -18272.564   -3683.8899 
     323           10   -18273.872            0    -18272.57   -3702.9897 
Loop time of 0.165669 on 12 procs for 6 steps with 1008 atoms

99.8% CPU use with 12 MPI tasks x no OpenMP threads

Minimization stats:
  Stopping criterion = linesearch alpha is zero
  Energy initial, next-to-last, final = 
        -18273.8656734     -18273.8719014     -18273.8719014
  Force two-norm initial, final = 0.40844 0.120407
  Force max component initial, final = 0.0418149 0.0146927
  Final line search alpha, max atom move = 4.76837e-07 7.00604e-09
  Iterations, force evaluations = 6 53

MPI task timing breakdown:
Section |  min time  |  avg time  |  max time  |%varavg| %total
---------------------------------------------------------------
Pair    | 0.057833   | 0.060701   | 0.066386   |   0.9 | 36.64
Kspace  | 0.089737   | 0.093004   | 0.095219   |   0.5 | 56.14
Neigh   | 0          | 0          | 0          |   0.0 |  0.00
Comm    | 0.0075858  | 0.010296   | 0.014151   |   1.7 |  6.21
Output  | 0          | 0          | 0          |   0.0 |  0.00
Modify  | 0          | 0          | 0          |   0.0 |  0.00
Other   |            | 0.001667   |            |       |  1.01

Nlocal:    84 ave 89 max 78 min
Histogram: 1 0 1 0 2 4 1 1 1 1
Nghost:    2604.25 ave 2616 max 2587 min
Histogram: 1 1 1 0 0 2 2 1 2 2
Neighs:    18630.4 ave 19810 max 17245 min
Histogram: 1 0 1 0 3 3 1 1 1 1

Total # of neighbors = 223565
Ave neighs/atom = 221.791
Neighbor list builds = 0
Dangerous builds = 0
  triclinic box = (0 0 0) to (23.3007 23.3007 23.3007) with tilt (0.077661 0 0)
WARNING: Resetting reneighboring criteria during minimization (../min.cpp:168)
Ewald initialization ...
  G vector (1/distance) = 0.365055
  estimated absolute RMS force accuracy = 1.94166e-05
  estimated relative force accuracy = 1.34841e-06
  KSpace vectors: actual max1d max3d = 2081 10 4630
                  kxmax kymax kzmax  = 10 10 10
Memory usage per processor = 4.56149 Mbytes
Step Temp E_pair E_mol TotEng Press 
     323           10   -18273.811            0   -18272.509   -3672.3352 
     335           10   -18273.837            0   -18272.535   -3748.9048 
Loop time of 0.36193 on 12 procs for 12 steps with 1008 atoms

99.9% CPU use with 12 MPI tasks x no OpenMP threads

Minimization stats:
  Stopping criterion = linesearch alpha is zero
  Energy initial, next-to-last, final = 
          -18273.81067     -18273.8366285     -18273.8366285
  Force two-norm initial, final = 0.816728 0.102349
  Force max component initial, final = 0.083591 0.00951366
  Final line search alpha, max atom move = 9.53674e-07 9.07293e-09
  Iterations, force evaluations = 12 117

MPI task timing breakdown:
Section |  min time  |  avg time  |  max time  |%varavg| %total
---------------------------------------------------------------
Pair    | 0.12683    | 0.13224    | 0.14551    |   1.4 | 36.54
Kspace  | 0.19546    | 0.20359    | 0.20893    |   0.9 | 56.25
Neigh   | 0          | 0          | 0          |   0.0 |  0.00
Comm    | 0.016685   | 0.022673   | 0.03132    |   2.6 |  6.26
Output  | 0          | 0          | 0          |   0.0 |  0.00
Modify  | 0          | 0          | 0          |   0.0 |  0.00
Other   |            | 0.003431   |            |       |  0.95

Nlocal:    84 ave 89 max 78 min
Histogram: 1 0 1 0 2 4 1 1 1 1
Nghost:    2604.25 ave 2616 max 2587 min
Histogram: 1 1 1 0 0 2 2 1 2 2
Neighs:    18629.5 ave 19808 max 17246 min
Histogram: 1 0 1 0 3 3 1 1 1 1

Total # of neighbors = 223554
Ave neighs/atom = 221.78
Neighbor list builds = 0
Dangerous builds = 0
  triclinic box = (0 0 0) to (23.3007 23.3007 23.3007) with tilt (0.116503 0 0)
WARNING: Resetting reneighboring criteria during minimization (../min.cpp:168)
Ewald initialization ...
  G vector (1/distance) = 0.365055
  estimated absolute RMS force accuracy = 1.94166e-05
  estimated relative force accuracy = 1.34841e-06
  KSpace vectors: actual max1d max3d = 2079 10 4630
                  kxmax kymax kzmax  = 10 10 10
Memory usage per processor = 4.56149 Mbytes
Step Temp E_pair E_mol TotEng Press 
     335           10   -18273.729            0   -18272.427   -3656.5278 
     349           10   -18273.785            0   -18272.484   -3789.4899 
Loop time of 0.217629 on 12 procs for 14 steps with 1008 atoms

99.8% CPU use with 12 MPI tasks x no OpenMP threads

Minimization stats:
  Stopping criterion = linesearch alpha is zero
  Energy initial, next-to-last, final = 
        -18273.7288235     -18273.7853395     -18273.7853395
  Force two-norm initial, final = 1.22535 0.15642
  Force max component initial, final = 0.125291 0.0236079
  Final line search alpha, max atom move = 4.76837e-07 1.12571e-08
  Iterations, force evaluations = 14 69

MPI task timing breakdown:
Section |  min time  |  avg time  |  max time  |%varavg| %total
---------------------------------------------------------------
Pair    | 0.07466    | 0.078626   | 0.086286   |   1.1 | 36.13
Kspace  | 0.11692    | 0.12123    | 0.1242     |   0.6 | 55.70
Neigh   | 0          | 0          | 0          |   0.0 |  0.00
Comm    | 0.010974   | 0.014954   | 0.019822   |   2.3 |  6.87
Output  | 0          | 0          | 0          |   0.0 |  0.00
Modify  | 0          | 0          | 0          |   0.0 |  0.00
Other   |            | 0.00282    |            |       |  1.30

Nlocal:    84 ave 89 max 78 min
Histogram: 1 0 1 0 2 4 1 1 1 1
Nghost:    2604.25 ave 2616 max 2587 min
Histogram: 1 1 1 0 0 2 2 1 2 2
Neighs:    18628.2 ave 19809 max 17244 min
Histogram: 1 0 1 0 3 3 1 1 1 1

Total # of neighbors = 223539
Ave neighs/atom = 221.765
Neighbor list builds = 0
Dangerous builds = 0
  triclinic box = (0 0 0) to (23.3007 23.3007 23.3007) with tilt (0 -0.116503 0)
WARNING: Resetting reneighboring criteria during minimization (../min.cpp:168)
Ewald initialization ...
  G vector (1/distance) = 0.365055
  estimated absolute RMS force accuracy = 1.94166e-05
  estimated relative force accuracy = 1.34841e-06
  KSpace vectors: actual max1d max3d = 2079 10 4630
                  kxmax kymax kzmax  = 10 10 10
Memory usage per processor = 4.56149 Mbytes
Step Temp E_pair E_mol TotEng Press 
     349           10   -18273.847            0   -18272.545   -3578.9582 
     350           10    -18273.87            0   -18272.568   -3583.9717 
     367           10   -18273.906            0   -18272.604   -3531.0896 
Loop time of 0.235144 on 12 procs for 18 steps with 1008 atoms

99.8% CPU use with 12 MPI tasks x no OpenMP threads

Minimization stats:
  Stopping criterion = linesearch alpha is zero
  Energy initial, next-to-last, final = 
         -18273.846564     -18273.9061164     -18273.9061164
  Force two-norm initial, final = 1.23461 0.110763
  Force max component initial, final = 0.115511 0.0190769
  Final line search alpha, max atom move = 9.53674e-07 1.81932e-08
  Iterations, force evaluations = 18 75

MPI task timing breakdown:
Section |  min time  |  avg time  |  max time  |%varavg| %total
---------------------------------------------------------------
Pair    | 0.080153   | 0.085841   | 0.093672   |   1.1 | 36.51
Kspace  | 0.12691    | 0.13116    | 0.13317    |   0.5 | 55.78
Neigh   | 0          | 0          | 0          |   0.0 |  0.00
Comm    | 0.011562   | 0.01532    | 0.020916   |   2.1 |  6.52
Output  | 3.0994e-05 | 3.3021e-05 | 4.2915e-05 |   0.1 |  0.01
Modify  | 0          | 0          | 0          |   0.0 |  0.00
Other   |            | 0.002795   |            |       |  1.19

Nlocal:    84 ave 89 max 78 min
Histogram: 1 0 1 0 2 4 1 1 1 1
Nghost:    2604.25 ave 2616 max 2587 min
Histogram: 1 1 1 0 0 2 2 1 2 2
Neighs:    18634.4 ave 19808 max 17237 min
Histogram: 1 0 1 0 3 3 1 1 1 1

Total # of neighbors = 223613
Ave neighs/atom = 221.838
Neighbor list builds = 0
Dangerous builds = 0
  triclinic box = (0 0 0) to (23.3007 23.3007 23.3007) with tilt (0 -0.077661 0)
WARNING: Resetting reneighboring criteria during minimization (../min.cpp:168)
Ewald initialization ...
  G vector (1/distance) = 0.365055
  estimated absolute RMS force accuracy = 1.94166e-05
  estimated relative force accuracy = 1.34841e-06
  KSpace vectors: actual max1d max3d = 2081 10 4630
                  kxmax kymax kzmax  = 10 10 10
Memory usage per processor = 4.56149 Mbytes
Step Temp E_pair E_mol TotEng Press 
     367           10   -18273.889            0   -18272.587   -3620.9427 
     377           10   -18273.916            0   -18272.614   -3603.6139 
Loop time of 0.193097 on 12 procs for 10 steps with 1008 atoms

100.1% CPU use with 12 MPI tasks x no OpenMP threads

Minimization stats:
  Stopping criterion = linesearch alpha is zero
  Energy initial, next-to-last, final = 
        -18273.8887653     -18273.9155038     -18273.9155038
  Force two-norm initial, final = 0.822994 0.138292
  Force max component initial, final = 0.0770521 0.0138459
  Final line search alpha, max atom move = 4.76837e-07 6.60226e-09
  Iterations, force evaluations = 10 61

MPI task timing breakdown:
Section |  min time  |  avg time  |  max time  |%varavg| %total
---------------------------------------------------------------
Pair    | 0.06521    | 0.069771   | 0.076756   |   1.0 | 36.13
Kspace  | 0.10363    | 0.10815    | 0.11044    |   0.6 | 56.01
Neigh   | 0          | 0          | 0          |   0.0 |  0.00
Comm    | 0.0093694  | 0.012564   | 0.016757   |   1.9 |  6.51
Output  | 0          | 0          | 0          |   0.0 |  0.00
Modify  | 0          | 0          | 0          |   0.0 |  0.00
Other   |            | 0.002606   |            |       |  1.35

Nlocal:    84 ave 89 max 78 min
Histogram: 1 0 1 0 2 4 1 1 1 1
Nghost:    2604.25 ave 2616 max 2587 min
Histogram: 1 1 1 0 0 2 2 1 2 2
Neighs:    18631 ave 19809 max 17237 min
Histogram: 1 0 1 0 3 3 1 1 1 1

Total # of neighbors = 223572
Ave neighs/atom = 221.798
Neighbor list builds = 0
Dangerous builds = 0
  triclinic box = (0 0 0) to (23.3007 23.3007 23.3007) with tilt (0 -0.038842 0)
WARNING: Resetting reneighboring criteria during minimization (../min.cpp:168)
Ewald initialization ...
  G vector (1/distance) = 0.365055
  estimated absolute RMS force accuracy = 1.94166e-05
  estimated relative force accuracy = 1.34841e-06
  KSpace vectors: actual max1d max3d = 2082 10 4630
                  kxmax kymax kzmax  = 10 10 10
Memory usage per processor = 4.56149 Mbytes
Step Temp E_pair E_mol TotEng Press 
     377           10   -18273.904            0   -18272.602   -3658.1737 
     387           10   -18273.911            0   -18272.609   -3643.3388 
Loop time of 0.202768 on 12 procs for 10 steps with 1008 atoms

100.0% CPU use with 12 MPI tasks x no OpenMP threads

Minimization stats:
  Stopping criterion = linesearch alpha is zero
  Energy initial, next-to-last, final = 
        -18273.9036606     -18273.9107444     -18273.9107444
  Force two-norm initial, final = 0.411646 0.0693917
  Force max component initial, final = 0.0385659 0.00711842
  Final line search alpha, max atom move = 1.90735e-06 1.35773e-08
  Iterations, force evaluations = 10 65

MPI task timing breakdown:
Section |  min time  |  avg time  |  max time  |%varavg| %total
---------------------------------------------------------------
Pair    | 0.069713   | 0.074342   | 0.081249   |   1.0 | 36.66
Kspace  | 0.10947    | 0.11392    | 0.11645    |   0.6 | 56.18
Neigh   | 0          | 0          | 0          |   0.0 |  0.00
Comm    | 0.0087626  | 0.012434   | 0.016959   |   2.0 |  6.13
Output  | 0          | 0          | 0          |   0.0 |  0.00
Modify  | 0          | 0          | 0          |   0.0 |  0.00
Other   |            | 0.002073   |            |       |  1.02

Nlocal:    84 ave 89 max 78 min
Histogram: 1 0 1 0 2 4 1 1 1 1
Nghost:    2604.25 ave 2616 max 2587 min
Histogram: 1 1 1 0 0 2 2 1 2 2
Neighs:    18631.2 ave 19804 max 17239 min
Histogram: 1 0 1 0 3 3 1 1 1 1

Total # of neighbors = 223575
Ave neighs/atom = 221.801
Neighbor list builds = 0
Dangerous builds = 0
  triclinic box = (0 0 0) to (23.3007 23.3007 23.3007) with tilt (0 0 0)
WARNING: Resetting reneighboring criteria during minimization (../min.cpp:168)
Ewald initialization ...
  G vector (1/distance) = 0.365055
  estimated absolute RMS force accuracy = 1.94166e-05
  estimated relative force accuracy = 1.34841e-06
  KSpace vectors: actual max1d max3d = 2084 10 4630
                  kxmax kymax kzmax  = 10 10 10
Memory usage per processor = 4.56149 Mbytes
Step Temp E_pair E_mol TotEng Press 
     387           10   -18273.895            0   -18272.593   -3691.4663 
     388           10   -18273.895            0   -18272.593   -3691.4663 
Loop time of 0.0741617 on 12 procs for 1 steps with 1008 atoms

100.4% CPU use with 12 MPI tasks x no OpenMP threads

Minimization stats:
  Stopping criterion = linesearch alpha is zero
  Energy initial, next-to-last, final = 
        -18273.8947691     -18273.8947691     -18273.8947691
  Force two-norm initial, final = 0.00471619 0.00471619
  Force max component initial, final = 0.000341508 0.000341508
  Final line search alpha, max atom move = 0.000488281 1.66752e-07
  Iterations, force evaluations = 1 23

MPI task timing breakdown:
Section |  min time  |  avg time  |  max time  |%varavg| %total
---------------------------------------------------------------
Pair    | 0.025968   | 0.027044   | 0.02963    |   0.6 | 36.47
Kspace  | 0.040084   | 0.041659   | 0.042857   |   0.4 | 56.17
Neigh   | 0          | 0          | 0          |   0.0 |  0.00
Comm    | 0.0034959  | 0.0048173  | 0.0064504  |   1.2 |  6.50
Output  | 0          | 0          | 0          |   0.0 |  0.00
Modify  | 0          | 0          | 0          |   0.0 |  0.00
Other   |            | 0.000641   |            |       |  0.86

Nlocal:    84 ave 89 max 78 min
Histogram: 1 0 1 0 2 4 1 1 1 1
Nghost:    2604.25 ave 2616 max 2587 min
Histogram: 1 1 1 0 0 2 2 1 2 2
Neighs:    18631.3 ave 19808 max 17248 min
Histogram: 1 0 1 0 3 3 1 1 1 1

Total # of neighbors = 223576
Ave neighs/atom = 221.802
Neighbor list builds = 0
Dangerous builds = 0
  triclinic box = (0 0 0) to (23.3007 23.3007 23.3007) with tilt (0 0.038842 0)
WARNING: Resetting reneighboring criteria during minimization (../min.cpp:168)
Ewald initialization ...
  G vector (1/distance) = 0.365055
  estimated absolute RMS force accuracy = 1.94166e-05
  estimated relative force accuracy = 1.34841e-06
  KSpace vectors: actual max1d max3d = 2082 10 4630
                  kxmax kymax kzmax  = 10 10 10
Memory usage per processor = 4.56149 Mbytes
Step Temp E_pair E_mol TotEng Press 
     388           10   -18273.858            0   -18272.556   -3719.7905 
     393           10   -18273.865            0   -18272.563   -3718.0303 
Loop time of 0.15831 on 12 procs for 5 steps with 1008 atoms

100.1% CPU use with 12 MPI tasks x no OpenMP threads

Minimization stats:
  Stopping criterion = linesearch alpha is zero
  Energy initial, next-to-last, final = 
        -18273.8578539     -18273.8646751     -18273.8646751
  Force two-norm initial, final = 0.411601 0.13153
  Force max component initial, final = 0.0386087 0.0142915
  Final line search alpha, max atom move = 4.76837e-07 6.81472e-09
  Iterations, force evaluations = 5 51

MPI task timing breakdown:
Section |  min time  |  avg time  |  max time  |%varavg| %total
---------------------------------------------------------------
Pair    | 0.055802   | 0.058366   | 0.063813   |   0.9 | 36.87
Kspace  | 0.085643   | 0.088607   | 0.090558   |   0.5 | 55.97
Neigh   | 0          | 0          | 0          |   0.0 |  0.00
Comm    | 0.0073311  | 0.009847   | 0.013628   |   1.7 |  6.22
Output  | 0          | 0          | 0          |   0.0 |  0.00
Modify  | 0          | 0          | 0          |   0.0 |  0.00
Other   |            | 0.00149    |            |       |  0.94

Nlocal:    84 ave 89 max 78 min
Histogram: 1 0 1 0 2 4 1 1 1 1
Nghost:    2604.25 ave 2616 max 2587 min
Histogram: 1 1 1 0 0 2 2 1 2 2
Neighs:    18630.8 ave 19801 max 17253 min
Histogram: 1 0 1 0 3 3 1 1 1 1

Total # of neighbors = 223570
Ave neighs/atom = 221.796
Neighbor list builds = 0
Dangerous builds = 0
  triclinic box = (0 0 0) to (23.3007 23.3007 23.3007) with tilt (0 0.077661 0)
WARNING: Resetting reneighboring criteria during minimization (../min.cpp:168)
Ewald initialization ...
  G vector (1/distance) = 0.365055
  estimated absolute RMS force accuracy = 1.94166e-05
  estimated relative force accuracy = 1.34841e-06
  KSpace vectors: actual max1d max3d = 2081 10 4630
                  kxmax kymax kzmax  = 10 10 10
Memory usage per processor = 4.56149 Mbytes
Step Temp E_pair E_mol TotEng Press 
     393           10   -18273.791            0   -18272.489   -3742.5764 
     400           10   -18273.816            0   -18272.515   -3765.1228 
     403           10   -18273.817            0   -18272.516   -3757.8573 
Loop time of 0.194644 on 12 procs for 10 steps with 1008 atoms

99.7% CPU use with 12 MPI tasks x no OpenMP threads

Minimization stats:
  Stopping criterion = linesearch alpha is zero
  Energy initial, next-to-last, final = 
        -18273.7908252     -18273.8173847     -18273.8173847
  Force two-norm initial, final = 0.822934 0.139433
  Force max component initial, final = 0.0772472 0.0149962
  Final line search alpha, max atom move = 4.76837e-07 7.15073e-09
  Iterations, force evaluations = 10 61

MPI task timing breakdown:
Section |  min time  |  avg time  |  max time  |%varavg| %total
---------------------------------------------------------------
Pair    | 0.066865   | 0.07017    | 0.077428   |   1.0 | 36.05
Kspace  | 0.10378    | 0.1076     | 0.1099     |   0.5 | 55.28
Neigh   | 0          | 0          | 0          |   0.0 |  0.00
Comm    | 0.010757   | 0.014357   | 0.019037   |   2.0 |  7.38
Output  | 3.5048e-05 | 3.6518e-05 | 4.7922e-05 |   0.1 |  0.02
Modify  | 0          | 0          | 0          |   0.0 |  0.00
Other   |            | 0.002483   |            |       |  1.28

Nlocal:    84 ave 89 max 78 min
Histogram: 1 0 1 0 2 4 1 1 1 1
Nghost:    2604.25 ave 2616 max 2587 min
Histogram: 1 1 1 0 0 2 2 1 2 2
Neighs:    18631.9 ave 19797 max 17258 min
Histogram: 1 0 1 0 3 3 1 1 1 1

Total # of neighbors = 223583
Ave neighs/atom = 221.809
Neighbor list builds = 0
Dangerous builds = 0
  triclinic box = (0 0 0) to (23.3007 23.3007 23.3007) with tilt (0 0.116503 0)
WARNING: Resetting reneighboring criteria during minimization (../min.cpp:168)
Ewald initialization ...
  G vector (1/distance) = 0.365055
  estimated absolute RMS force accuracy = 1.94166e-05
  estimated relative force accuracy = 1.34841e-06
  KSpace vectors: actual max1d max3d = 2079 10 4630
                  kxmax kymax kzmax  = 10 10 10
Memory usage per processor = 4.56149 Mbytes
Step Temp E_pair E_mol TotEng Press 
     403           10   -18273.693            0   -18272.391   -3759.6997 
     417           10   -18273.752            0    -18272.45    -3783.556 
Loop time of 0.217133 on 12 procs for 14 steps with 1008 atoms

99.7% CPU use with 12 MPI tasks x no OpenMP threads

Minimization stats:
  Stopping criterion = linesearch alpha is zero
  Energy initial, next-to-last, final = 
        -18273.6931413     -18273.7516517     -18273.7516517
  Force two-norm initial, final = 1.23451 0.147383
  Force max component initial, final = 0.115974 0.0197027
  Final line search alpha, max atom move = 4.76837e-07 9.39499e-09
  Iterations, force evaluations = 14 69

MPI task timing breakdown:
Section |  min time  |  avg time  |  max time  |%varavg| %total
---------------------------------------------------------------
Pair    | 0.072802   | 0.078525   | 0.086303   |   1.1 | 36.16
Kspace  | 0.11697    | 0.12094    | 0.12337    |   0.5 | 55.70
Neigh   | 0          | 0          | 0          |   0.0 |  0.00
Comm    | 0.010999   | 0.015014   | 0.020589   |   2.0 |  6.91
Output  | 0          | 0          | 0          |   0.0 |  0.00
Modify  | 0          | 0          | 0          |   0.0 |  0.00
Other   |            | 0.002657   |            |       |  1.22

Nlocal:    84 ave 89 max 78 min
Histogram: 1 0 1 0 2 4 1 1 1 1
Nghost:    2604.25 ave 2616 max 2587 min
Histogram: 1 1 1 0 0 2 2 1 2 2
Neighs:    18631.6 ave 19800 max 17253 min
Histogram: 1 0 1 0 3 3 1 1 1 1

Total # of neighbors = 223579
Ave neighs/atom = 221.805
Neighbor list builds = 0
Dangerous builds = 0
  triclinic box = (0 0 0) to (23.3007 23.3007 23.3007) with tilt (0 0 -0.116503)
WARNING: Resetting reneighboring criteria during minimization (../min.cpp:168)
Ewald initialization ...
  G vector (1/distance) = 0.365055
  estimated absolute RMS force accuracy = 1.94166e-05
  estimated relative force accuracy = 1.34841e-06
  KSpace vectors: actual max1d max3d = 2079 10 4630
                  kxmax kymax kzmax  = 10 10 10
Memory usage per processor = 4.56149 Mbytes
Step Temp E_pair E_mol TotEng Press 
     417           10    -18273.95            0   -18272.648   -3668.8302 
     433           10   -18274.013            0   -18272.711   -3456.4692 
Loop time of 0.226359 on 12 procs for 16 steps with 1008 atoms

100.2% CPU use with 12 MPI tasks x no OpenMP threads

Minimization stats:
  Stopping criterion = linesearch alpha is zero
  Energy initial, next-to-last, final = 
        -18273.9497482     -18274.0131173     -18274.0131173
  Force two-norm initial, final = 1.26714 0.151453
  Force max component initial, final = 0.109262 0.0161456
  Final line search alpha, max atom move = 4.76837e-07 7.69884e-09
  Iterations, force evaluations = 16 73

MPI task timing breakdown:
Section |  min time  |  avg time  |  max time  |%varavg| %total
---------------------------------------------------------------
Pair    | 0.079201   | 0.082683   | 0.090631   |   1.1 | 36.53
Kspace  | 0.12215    | 0.12678    | 0.12968    |   0.6 | 56.01
Neigh   | 0          | 0          | 0          |   0.0 |  0.00
Comm    | 0.010789   | 0.014446   | 0.019759   |   2.1 |  6.38
Output  | 0          | 0          | 0          |   0.0 |  0.00
Modify  | 0          | 0          | 0          |   0.0 |  0.00
Other   |            | 0.002451   |            |       |  1.08

Nlocal:    84 ave 89 max 78 min
Histogram: 1 0 1 0 2 4 1 1 1 1
Nghost:    2604.25 ave 2616 max 2587 min
Histogram: 1 1 1 0 0 2 2 1 2 2
Neighs:    18632.3 ave 19802 max 17254 min
Histogram: 1 0 1 0 3 3 1 1 1 1

Total # of neighbors = 223588
Ave neighs/atom = 221.813
Neighbor list builds = 0
Dangerous builds = 0
  triclinic box = (0 0 0) to (23.3007 23.3007 23.3007) with tilt (0 0 -0.077661)
WARNING: Resetting reneighboring criteria during minimization (../min.cpp:168)
Ewald initialization ...
  G vector (1/distance) = 0.365055
  estimated absolute RMS force accuracy = 1.94166e-05
  estimated relative force accuracy = 1.34841e-06
  KSpace vectors: actual max1d max3d = 2081 10 4630
                  kxmax kymax kzmax  = 10 10 10
Memory usage per processor = 4.56149 Mbytes
Step Temp E_pair E_mol TotEng Press 
     433           10   -18273.962            0    -18272.66   -3681.8305 
     439           10   -18273.984            0   -18272.682   -3578.0295 
Loop time of 0.177972 on 12 procs for 6 steps with 1008 atoms

100.0% CPU use with 12 MPI tasks x no OpenMP threads

Minimization stats:
  Stopping criterion = linesearch alpha is zero
  Energy initial, next-to-last, final = 
        -18273.9619236      -18273.983879      -18273.983879
  Force two-norm initial, final = 0.844756 0.238775
  Force max component initial, final = 0.0728992 0.0347299
  Final line search alpha, max atom move = 1.19209e-07 4.14012e-09
  Iterations, force evaluations = 6 57

MPI task timing breakdown:
Section |  min time  |  avg time  |  max time  |%varavg| %total
---------------------------------------------------------------
Pair    | 0.061714   | 0.065061   | 0.071066   |   0.9 | 36.56
Kspace  | 0.09586    | 0.099054   | 0.10067    |   0.4 | 55.66
Neigh   | 0          | 0          | 0          |   0.0 |  0.00
Comm    | 0.0089848  | 0.01189    | 0.016195   |   1.8 |  6.68
Output  | 0          | 0          | 0          |   0.0 |  0.00
Modify  | 0          | 0          | 0          |   0.0 |  0.00
Other   |            | 0.001967   |            |       |  1.11

Nlocal:    84 ave 89 max 78 min
Histogram: 1 0 1 0 2 4 1 1 1 1
Nghost:    2604.25 ave 2616 max 2587 min
Histogram: 1 1 1 0 0 2 2 1 2 2
Neighs:    18632.4 ave 19801 max 17252 min
Histogram: 1 0 1 0 3 3 1 1 1 1

Total # of neighbors = 223589
Ave neighs/atom = 221.814
Neighbor list builds = 0
Dangerous builds = 0
  triclinic box = (0 0 0) to (23.3007 23.3007 23.3007) with tilt (0 0 -0.038842)
WARNING: Resetting reneighboring criteria during minimization (../min.cpp:168)
Ewald initialization ...
  G vector (1/distance) = 0.365055
  estimated absolute RMS force accuracy = 1.94166e-05
  estimated relative force accuracy = 1.34841e-06
  KSpace vectors: actual max1d max3d = 2082 10 4630
                  kxmax kymax kzmax  = 10 10 10
Memory usage per processor = 4.56149 Mbytes
Step Temp E_pair E_mol TotEng Press 
[...]
        -18273.6290561     -18273.6382689     -18273.6382689
  Force two-norm initial, final = 0.416019 0.0638613
  Force max component initial, final = 0.0365203 0.00687295
  Final line search alpha, max atom move = 1.90735e-06 1.31091e-08
  Iterations, force evaluations = 13 77

MPI task timing breakdown:
Section |  min time  |  avg time  |  max time  |%varavg| %total
---------------------------------------------------------------
Pair    | 0.07859    | 0.086101   | 0.095532   |   1.3 | 35.81
Kspace  | 0.12855    | 0.13384    | 0.13712    |   0.6 | 55.67
Neigh   | 0          | 0          | 0          |   0.0 |  0.00
Comm    | 0.013054   | 0.01738    | 0.024401   |   2.3 |  7.23
Output  | 0          | 0          | 0          |   0.0 |  0.00
Modify  | 0          | 0          | 0          |   0.0 |  0.00
Other   |            | 0.003093   |            |       |  1.29

Nlocal:    84 ave 90 max 77 min
Histogram: 1 0 1 1 1 1 6 0 0 1
Nghost:    2607.67 ave 2621 max 2590 min
Histogram: 1 1 1 1 2 0 0 1 3 2
Neighs:    18631.2 ave 20004 max 17013 min
Histogram: 1 0 1 1 1 2 4 1 0 1

Total # of neighbors = 223575
Ave neighs/atom = 221.801
Neighbor list builds = 0
Dangerous builds = 0
  triclinic box = (0 0 0) to (23.3007 23.3007 23.3007) with tilt (0 0.077661 0)
WARNING: Resetting reneighboring criteria during minimization (../min.cpp:168)
Ewald initialization ...
  G vector (1/distance) = 0.365055
  estimated absolute RMS force accuracy = 1.94166e-05
  estimated relative force accuracy = 1.34841e-06
  KSpace vectors: actual max1d max3d = 2081 10 4630
                  kxmax kymax kzmax  = 10 10 10
Memory usage per processor = 4.56149 Mbytes
Step Temp E_pair E_mol TotEng Press 
     982           10    -18273.59            0   -18272.289   -4332.7924 
     990           10   -18273.614            0   -18272.313   -4322.7214 
Loop time of 0.184811 on 12 procs for 8 steps with 1008 atoms

99.8% CPU use with 12 MPI tasks x no OpenMP threads

Minimization stats:
  Stopping criterion = linesearch alpha is zero
  Energy initial, next-to-last, final = 
        -18273.5901963     -18273.6144667     -18273.6144667
  Force two-norm initial, final = 0.831837 0.189021
  Force max component initial, final = 0.0730731 0.0310929
  Final line search alpha, max atom move = 2.38419e-07 7.41314e-09
  Iterations, force evaluations = 8 59

MPI task timing breakdown:
Section |  min time  |  avg time  |  max time  |%varavg| %total
---------------------------------------------------------------
Pair    | 0.060319   | 0.06585    | 0.072968   |   1.1 | 35.63
Kspace  | 0.099148   | 0.10278    | 0.10479    |   0.5 | 55.61
Neigh   | 0          | 0          | 0          |   0.0 |  0.00
Comm    | 0.010215   | 0.013935   | 0.019382   |   1.9 |  7.54
Output  | 0          | 0          | 0          |   0.0 |  0.00
Modify  | 0          | 0          | 0          |   0.0 |  0.00
Other   |            | 0.002248   |            |       |  1.22

Nlocal:    84 ave 90 max 77 min
Histogram: 1 0 1 1 1 1 6 0 0 1
Nghost:    2607.67 ave 2621 max 2590 min
Histogram: 1 1 1 1 2 0 0 1 3 2
Neighs:    18629.5 ave 20003 max 17013 min
Histogram: 1 0 1 1 1 2 4 1 0 1

Total # of neighbors = 223554
Ave neighs/atom = 221.78
Neighbor list builds = 0
Dangerous builds = 0
  triclinic box = (0 0 0) to (23.3007 23.3007 23.3007) with tilt (0 0.116503 0)
WARNING: Resetting reneighboring criteria during minimization (../min.cpp:168)
Ewald initialization ...
  G vector (1/distance) = 0.365055
  estimated absolute RMS force accuracy = 1.94166e-05
  estimated relative force accuracy = 1.34841e-06
  KSpace vectors: actual max1d max3d = 2079 10 4630
                  kxmax kymax kzmax  = 10 10 10
Memory usage per processor = 4.56149 Mbytes
Step Temp E_pair E_mol TotEng Press 
     990           10    -18273.52            0   -18272.219   -4351.9209 
    1000           10    -18273.58            0   -18272.279   -4320.8627 
    1006           10   -18273.584            0   -18272.282   -4336.3567 
Loop time of 0.225683 on 12 procs for 16 steps with 1008 atoms

100.0% CPU use with 12 MPI tasks x no OpenMP threads

Minimization stats:
  Stopping criterion = linesearch alpha is zero
  Energy initial, next-to-last, final = 
        -18273.5201722     -18273.5838983     -18273.5838983
  Force two-norm initial, final = 1.24798 0.158504
  Force max component initial, final = 0.109705 0.0147573
  Final line search alpha, max atom move = 4.76837e-07 7.03684e-09
  Iterations, force evaluations = 16 73

MPI task timing breakdown:
Section |  min time  |  avg time  |  max time  |%varavg| %total
---------------------------------------------------------------
Pair    | 0.073826   | 0.08157    | 0.090409   |   1.3 | 36.14
Kspace  | 0.12149    | 0.12647    | 0.12846    |   0.5 | 56.04
Neigh   | 0          | 0          | 0          |   0.0 |  0.00
Comm    | 0.011098   | 0.015073   | 0.021718   |   2.2 |  6.68
Output  | 4.2915e-05 | 4.5856e-05 | 5.1022e-05 |   0.0 |  0.02
Modify  | 0          | 0          | 0          |   0.0 |  0.00
Other   |            | 0.00252    |            |       |  1.12

Nlocal:    84 ave 90 max 77 min
Histogram: 1 0 1 1 1 1 6 0 0 1
Nghost:    2607.67 ave 2621 max 2590 min
Histogram: 1 1 1 1 2 0 0 1 3 2
Neighs:    18628 ave 20007 max 17008 min
Histogram: 1 0 1 1 1 2 4 1 0 1

Total # of neighbors = 223536
Ave neighs/atom = 221.762
Neighbor list builds = 0
Dangerous builds = 0
  triclinic box = (0 0 0) to (23.3007 23.3007 23.3007) with tilt (0 0 -0.116503)
WARNING: Resetting reneighboring criteria during minimization (../min.cpp:168)
Ewald initialization ...
  G vector (1/distance) = 0.365055
  estimated absolute RMS force accuracy = 1.94166e-05
  estimated relative force accuracy = 1.34841e-06
  KSpace vectors: actual max1d max3d = 2079 10 4630
                  kxmax kymax kzmax  = 10 10 10
Memory usage per processor = 4.56149 Mbytes
Step Temp E_pair E_mol TotEng Press 
    1006           10   -18273.747            0   -18272.446   -4257.2555 
    1028           10   -18273.813            0   -18272.511   -4089.0567 
Loop time of 0.263071 on 12 procs for 22 steps with 1008 atoms

99.9% CPU use with 12 MPI tasks x no OpenMP threads

Minimization stats:
  Stopping criterion = linesearch alpha is zero
  Energy initial, next-to-last, final = 
         -18273.747308     -18273.8126261     -18273.8126261
  Force two-norm initial, final = 1.26584 0.0985466
  Force max component initial, final = 0.112056 0.0103967
  Final line search alpha, max atom move = 9.53674e-07 9.91508e-09
  Iterations, force evaluations = 22 85

MPI task timing breakdown:
Section |  min time  |  avg time  |  max time  |%varavg| %total
---------------------------------------------------------------
Pair    | 0.086828   | 0.094306   | 0.10463    |   1.3 | 35.85
Kspace  | 0.14206    | 0.14744    | 0.15119    |   0.6 | 56.05
Neigh   | 0          | 0          | 0          |   0.0 |  0.00
Comm    | 0.01302    | 0.018139   | 0.025913   |   2.4 |  6.90
Output  | 0          | 0          | 0          |   0.0 |  0.00
Modify  | 0          | 0          | 0          |   0.0 |  0.00
Other   |            | 0.003182   |            |       |  1.21

Nlocal:    84 ave 90 max 77 min
Histogram: 1 0 1 1 1 1 6 0 0 1
Nghost:    2607.67 ave 2621 max 2590 min
Histogram: 1 1 1 1 2 0 0 1 3 2
Neighs:    18627.8 ave 20005 max 17011 min
Histogram: 1 0 1 1 1 2 4 1 0 1

Total # of neighbors = 223533
Ave neighs/atom = 221.759
Neighbor list builds = 0
Dangerous builds = 0
  triclinic box = (0 0 0) to (23.3007 23.3007 23.3007) with tilt (0 0 -0.077661)
WARNING: Resetting reneighboring criteria during minimization (../min.cpp:168)
Ewald initialization ...
  G vector (1/distance) = 0.365055
  estimated absolute RMS force accuracy = 1.94166e-05
  estimated relative force accuracy = 1.34841e-06
  KSpace vectors: actual max1d max3d = 2081 10 4630
                  kxmax kymax kzmax  = 10 10 10
Memory usage per processor = 4.56149 Mbytes
Step Temp E_pair E_mol TotEng Press 
    1028           10   -18273.741            0   -18272.439   -4269.3362 
    1044           10   -18273.771            0    -18272.47   -4151.5416 
Loop time of 0.219381 on 12 procs for 16 steps with 1008 atoms

99.7% CPU use with 12 MPI tasks x no OpenMP threads

Minimization stats:
  Stopping criterion = linesearch alpha is zero
  Energy initial, next-to-last, final = 
        -18273.7407559     -18273.7713202     -18273.7713202
  Force two-norm initial, final = 0.843887 0.0951404
  Force max component initial, final = 0.0747556 0.0154269
  Final line search alpha, max atom move = 9.53674e-07 1.47122e-08
  Iterations, force evaluations = 16 71

MPI task timing breakdown:
Section |  min time  |  avg time  |  max time  |%varavg| %total
---------------------------------------------------------------
Pair    | 0.072679   | 0.078878   | 0.086884   |   1.1 | 35.95
Kspace  | 0.11882    | 0.12244    | 0.12516    |   0.5 | 55.81
Neigh   | 0          | 0          | 0          |   0.0 |  0.00
Comm    | 0.010836   | 0.015381   | 0.022014   |   2.2 |  7.01
Output  | 0          | 0          | 0          |   0.0 |  0.00
Modify  | 0          | 0          | 0          |   0.0 |  0.00
Other   |            | 0.002679   |            |       |  1.22

Nlocal:    84 ave 90 max 77 min
Histogram: 1 0 1 1 1 1 6 0 0 1
Nghost:    2607.67 ave 2621 max 2590 min
Histogram: 1 1 1 1 2 0 0 1 3 2
Neighs:    18628.9 ave 20017 max 17008 min
Histogram: 1 0 1 1 1 2 4 1 0 1

Total # of neighbors = 223547
Ave neighs/atom = 221.773
Neighbor list builds = 0
Dangerous builds = 0
  triclinic box = (0 0 0) to (23.3007 23.3007 23.3007) with tilt (0 0 -0.038842)
WARNING: Resetting reneighboring criteria during minimization (../min.cpp:168)
Ewald initialization ...
  G vector (1/distance) = 0.365055
  estimated absolute RMS force accuracy = 1.94166e-05
  estimated relative force accuracy = 1.34841e-06
  KSpace vectors: actual max1d max3d = 2082 10 4630
                  kxmax kymax kzmax  = 10 10 10
Memory usage per processor = 4.56149 Mbytes
Step Temp E_pair E_mol TotEng Press 
    1044           10   -18273.706            0   -18272.404   -4276.5132 
    1050           10   -18273.712            0    -18272.41    -4227.365 
    1056           10   -18273.714            0   -18272.413   -4217.9781 
Loop time of 0.190106 on 12 procs for 12 steps with 1008 atoms

99.8% CPU use with 12 MPI tasks x no OpenMP threads

Minimization stats:
  Stopping criterion = linesearch alpha is zero
  Energy initial, next-to-last, final = 
        -18273.7058093     -18273.7142128     -18273.7142128
  Force two-norm initial, final = 0.422186 0.0609335
  Force max component initial, final = 0.0374252 0.00586914
  Final line search alpha, max atom move = 1.90735e-06 1.11945e-08
  Iterations, force evaluations = 12 61

MPI task timing breakdown:
Section |  min time  |  avg time  |  max time  |%varavg| %total
---------------------------------------------------------------
Pair    | 0.061832   | 0.06844    | 0.075826   |   1.2 | 36.00
Kspace  | 0.10269    | 0.10681    | 0.10949    |   0.6 | 56.19
Neigh   | 0          | 0          | 0          |   0.0 |  0.00
Comm    | 0.0091207  | 0.012503   | 0.017979   |   2.1 |  6.58
Output  | 3.2902e-05 | 3.4928e-05 | 4.7922e-05 |   0.1 |  0.02
Modify  | 0          | 0          | 0          |   0.0 |  0.00
Other   |            | 0.002315   |            |       |  1.22

Nlocal:    84 ave 90 max 77 min
Histogram: 1 0 1 1 1 1 6 0 0 1
Nghost:    2607.67 ave 2621 max 2590 min
Histogram: 1 1 1 1 2 0 0 1 3 2
Neighs:    18630.8 ave 20011 max 17005 min
Histogram: 1 0 1 1 1 2 4 1 0 1

Total # of neighbors = 223569
Ave neighs/atom = 221.795
Neighbor list builds = 0
Dangerous builds = 0
  triclinic box = (0 0 0) to (23.3007 23.3007 23.3007) with tilt (0 0 0)
WARNING: Resetting reneighboring criteria during minimization (../min.cpp:168)
Ewald initialization ...
  G vector (1/distance) = 0.365055
  estimated absolute RMS force accuracy = 1.94166e-05
  estimated relative force accuracy = 1.34841e-06
  KSpace vectors: actual max1d max3d = 2084 10 4630
                  kxmax kymax kzmax  = 10 10 10
Memory usage per processor = 4.56149 Mbytes
Step Temp E_pair E_mol TotEng Press 
    1056           10   -18273.642            0    -18272.34   -4278.4995 
    1062           10   -18273.642            0    -18272.34   -4271.1131 
Loop time of 0.0915517 on 12 procs for 6 steps with 1008 atoms

99.9% CPU use with 12 MPI tasks x no OpenMP threads

Minimization stats:
  Stopping criterion = linesearch alpha is zero
  Energy initial, next-to-last, final = 
        -18273.6418617     -18273.6420666     -18273.6420666
  Force two-norm initial, final = 0.00470807 0.00159471
  Force max component initial, final = 0.000348323 0.000180063
  Final line search alpha, max atom move = 0.00390625 7.03371e-07
  Iterations, force evaluations = 6 29

MPI task timing breakdown:
Section |  min time  |  avg time  |  max time  |%varavg| %total
---------------------------------------------------------------
Pair    | 0.029624   | 0.032898   | 0.036666   |   0.8 | 35.93
Kspace  | 0.049529   | 0.051489   | 0.052761   |   0.4 | 56.24
Neigh   | 0          | 0          | 0          |   0.0 |  0.00
Comm    | 0.0043039  | 0.0061635  | 0.0090182  |   1.5 |  6.73
Output  | 0          | 0          | 0          |   0.0 |  0.00
Modify  | 0          | 0          | 0          |   0.0 |  0.00
Other   |            | 0.001001   |            |       |  1.09

Nlocal:    84 ave 90 max 77 min
Histogram: 1 0 1 1 1 1 6 0 0 1
Nghost:    2607.67 ave 2621 max 2590 min
Histogram: 1 1 1 1 2 0 0 1 3 2
Neighs:    18632.5 ave 20013 max 17006 min
Histogram: 1 0 1 1 1 2 4 1 0 1

Total # of neighbors = 223590
Ave neighs/atom = 221.815
Neighbor list builds = 0
Dangerous builds = 0
  triclinic box = (0 0 0) to (23.3007 23.3007 23.3007) with tilt (0 0 0.038842)
WARNING: Resetting reneighboring criteria during minimization (../min.cpp:168)
Ewald initialization ...
  G vector (1/distance) = 0.365055
  estimated absolute RMS force accuracy = 1.94166e-05
  estimated relative force accuracy = 1.34841e-06
  KSpace vectors: actual max1d max3d = 2082 10 4630
                  kxmax kymax kzmax  = 10 10 10
Memory usage per processor = 4.56149 Mbytes
Step Temp E_pair E_mol TotEng Press 
    1062           10   -18273.553            0   -18272.252   -4276.3957 
    1069           10   -18273.559            0   -18272.258   -4313.8178 
Loop time of 0.164203 on 12 procs for 7 steps with 1008 atoms

99.7% CPU use with 12 MPI tasks x no OpenMP threads

Minimization stats:
  Stopping criterion = linesearch alpha is zero
  Energy initial, next-to-last, final = 
        -18273.5531604     -18273.5592702     -18273.5592702
  Force two-norm initial, final = 0.421969 0.100256
  Force max component initial, final = 0.0374539 0.0140772
  Final line search alpha, max atom move = 9.53674e-07 1.34251e-08
  Iterations, force evaluations = 7 53

MPI task timing breakdown:
Section |  min time  |  avg time  |  max time  |%varavg| %total
---------------------------------------------------------------
Pair    | 0.054597   | 0.059155   | 0.065869   |   1.1 | 36.03
Kspace  | 0.08929    | 0.09227    | 0.094173   |   0.5 | 56.19
Neigh   | 0          | 0          | 0          |   0.0 |  0.00
Comm    | 0.0073636  | 0.011173   | 0.016463   |   2.0 |  6.80
Output  | 0          | 0          | 0          |   0.0 |  0.00
Modify  | 0          | 0          | 0          |   0.0 |  0.00
Other   |            | 0.001604   |            |       |  0.98

Nlocal:    84 ave 90 max 77 min
Histogram: 1 0 1 1 1 1 6 0 0 1
Nghost:    2607.67 ave 2621 max 2590 min
Histogram: 1 1 1 1 2 0 0 1 3 2
Neighs:    18632 ave 20008 max 17012 min
Histogram: 1 0 1 1 1 2 3 2 0 1

Total # of neighbors = 223584
Ave neighs/atom = 221.81
Neighbor list builds = 0
Dangerous builds = 0
  triclinic box = (0 0 0) to (23.3007 23.3007 23.3007) with tilt (0 0 0.077661)
WARNING: Resetting reneighboring criteria during minimization (../min.cpp:168)
Ewald initialization ...
  G vector (1/distance) = 0.365055
  estimated absolute RMS force accuracy = 1.94166e-05
  estimated relative force accuracy = 1.34841e-06
  KSpace vectors: actual max1d max3d = 2081 10 4630
                  kxmax kymax kzmax  = 10 10 10
Memory usage per processor = 4.56149 Mbytes
Step Temp E_pair E_mol TotEng Press 
    1069           10    -18273.44            0   -18272.138   -4270.3264 
    1080           10   -18273.464            0   -18272.163   -4371.5138 
Loop time of 0.195405 on 12 procs for 11 steps with 1008 atoms

100.0% CPU use with 12 MPI tasks x no OpenMP threads

Minimization stats:
  Stopping criterion = linesearch alpha is zero
  Energy initial, next-to-last, final = 
        -18273.4400342     -18273.4644431     -18273.4644431
  Force two-norm initial, final = 0.843868 0.133796
  Force max component initial, final = 0.074956 0.0135604
  Final line search alpha, max atom move = 4.76837e-07 6.46608e-09
  Iterations, force evaluations = 11 63

MPI task timing breakdown:
Section |  min time  |  avg time  |  max time  |%varavg| %total
---------------------------------------------------------------
Pair    | 0.063941   | 0.070158   | 0.077559   |   1.1 | 35.90
Kspace  | 0.10584    | 0.10941    | 0.11175    |   0.5 | 55.99
Neigh   | 0          | 0          | 0          |   0.0 |  0.00
Comm    | 0.0096874  | 0.013676   | 0.019538   |   2.1 |  7.00
Output  | 0          | 0          | 0          |   0.0 |  0.00
Modify  | 0          | 0          | 0          |   0.0 |  0.00
Other   |            | 0.002163   |            |       |  1.11

Nlocal:    84 ave 90 max 77 min
Histogram: 1 0 1 1 1 1 6 0 0 1
Nghost:    2607.67 ave 2621 max 2590 min
Histogram: 1 1 1 1 2 0 0 1 3 2
Neighs:    18631.4 ave 20010 max 17016 min
Histogram: 1 0 1 1 1 2 4 1 0 1

Total # of neighbors = 223577
Ave neighs/atom = 221.803
Neighbor list builds = 0
Dangerous builds = 0
  triclinic box = (0 0 0) to (23.3007 23.3007 23.3007) with tilt (0 0 0.116503)
WARNING: Resetting reneighboring criteria during minimization (../min.cpp:168)
Ewald initialization ...
  G vector (1/distance) = 0.365055
  estimated absolute RMS force accuracy = 1.94166e-05
  estimated relative force accuracy = 1.34841e-06
  KSpace vectors: actual max1d max3d = 2079 10 4630
                  kxmax kymax kzmax  = 10 10 10
Memory usage per processor = 4.56149 Mbytes
Step Temp E_pair E_mol TotEng Press 
    1080           10   -18273.296            0   -18271.994   -4258.7094 
    1099           10   -18273.359            0   -18272.058   -4442.5816 
Loop time of 0.357972 on 12 procs for 19 steps with 1008 atoms

100.0% CPU use with 12 MPI tasks x no OpenMP threads

Minimization stats:
  Stopping criterion = linesearch alpha is zero
  Energy initial, next-to-last, final = 
        -18273.2959367     -18273.3592111     -18273.3592111
  Force two-norm initial, final = 1.26613 0.103614
  Force max component initial, final = 0.112623 0.00685219
  Final line search alpha, max atom move = 9.53674e-07 6.53476e-09
  Iterations, force evaluations = 19 117

MPI task timing breakdown:
Section |  min time  |  avg time  |  max time  |%varavg| %total
---------------------------------------------------------------
Pair    | 0.11758    | 0.12952    | 0.14227    |   1.5 | 36.18
Kspace  | 0.19504    | 0.20084    | 0.20514    |   0.7 | 56.11
Neigh   | 0          | 0          | 0          |   0.0 |  0.00
Comm    | 0.01688    | 0.024036   | 0.034576   |   2.9 |  6.71
Output  | 0          | 0          | 0          |   0.0 |  0.00
Modify  | 0          | 0          | 0          |   0.0 |  0.00
Other   |            | 0.003575   |            |       |  1.00

Nlocal:    84 ave 90 max 77 min
Histogram: 1 0 1 1 1 1 6 0 0 1
Nghost:    2607.67 ave 2621 max 2590 min
Histogram: 1 1 1 1 2 0 0 1 3 2
Neighs:    18632.7 ave 20016 max 17019 min
Histogram: 1 0 1 1 1 2 4 1 0 1

Total # of neighbors = 223592
Ave neighs/atom = 221.817
Neighbor list builds = 0
Dangerous builds = 0
Total wall time: 0:00:19
