ITEM: TIMESTEP
0
ITEM: NUMBER OF ATOMS
1008
ITEM: BOX BOUNDS xy xz yz pp pp pp
0.0 23.3006801605 0.0
0.0 23.3006801605 0.0
0.0 23.3006801605 0.0
ITEM: ATOMS id type x y z
1 1 4.221417903900146 -7.148447990417480 -8.098410606384277 
2 1 0.112652681767941 6.189038753509521 -1.401784300804138 
3 1 -11.043316841125488 5.527647018432617 -3.270742416381836 
4 1 -1.365871906280518 3.156836032867432 -1.471994638442993 
5 1 5.938683032989502 -11.643400192260742 -11.475637435913086 
6 1 0.303827911615372 -2.822025060653687 10.401291847229004 
7 1 7.992661952972412 0.135048940777779 -3.394697427749634 
8 1 -4.204453945159912 -1.170898556709290 -4.603892326354980 
9 1 -9.711730003356934 10.310318946838379 -1.580983757972717 
10 1 5.158483028411865 -0.397258549928665 -9.611321449279785 
11 1 9.577010154724121 2.130559444427490 7.007491111755371 
12 1 9.021666526794434 -2.811145067214966 4.558272361755371 
13 1 0.875562012195587 3.419313430786133 9.620984077453613 
14 1 -6.788553237915039 4.428267478942871 -1.276026368141174 
15 1 -5.090199947357178 -3.839136600494385 5.549232959747314 
16 1 3.050973653793335 -9.117664337158203 4.316581726074219 
17 1 -10.338521957397461 3.582208633422852 5.770647525787354 
18 1 -9.633528709411621 2.228403091430664 -2.247117519378662 
19 1 -0.721267342567444 -1.410656452178955 5.073523521423340 
20 1 -10.296108245849609 -2.598710536956787 8.267660140991211 
21 1 10.850290298461914 -5.645798206329346 5.228266716003418 
22 1 -0.057999622076750 -7.202037811279297 -3.374623060226440 
23 1 -5.792893886566162 -7.092440128326416 7.396359443664551 
24 1 7.751672744750977 4.715745925903320 9.006511688232422 
25 1 7.115677356719971 -2.630490303039551 9.456525802612305 
26 1 -5.588776111602783 6.473457336425781 6.950735092163086 
27 1 8.117008209228516 -10.813732147216797 2.356381177902222 
28 1 0.312014579772949 10.339883804321289 5.994215965270996 
29 1 -3.061584711074829 -11.026202201843262 -4.512439250946045 
30 1 -6.198605060577393 3.078029632568359 -7.420659542083740 
31 1 -1.472554802894592 5.261961460113525 -7.474984169006348 
32 1 -11.450895309448242 6.904293537139893 6.313798427581787 
33 1 4.647055149078369 6.047745704650879 1.162156701087952 
34 1 2.154000520706177 3.359838247299194 -0.033008597791195 
35 1 0.435036242008209 -1.493243455886841 -5.568674564361572 
36 1 -10.458683013916016 -11.291560173034668 10.217311859130859 
37 1 11.510516166687012 -0.597966730594635 5.534530162811279 
38 1 -4.676853656768799 1.377927899360657 -1.574513912200928 
39 1 4.453105926513672 -4.130596637725830 -6.141619682312012 
40 1 -7.140650272369385 -4.593717575073242 2.520783424377441 
41 1 -3.357829809188843 -7.037145137786865 -5.246720790863037 
42 1 3.177306652069092 -10.345590591430664 -9.960918426513672 
43 1 -8.549474716186523 5.404778957366943 -9.128378868103027 
44 1 -2.351377010345459 -9.026820182800293 -1.565360784530640 
45 1 -8.356526374816895 10.848806381225586 7.553088665008545 
46 1 0.675433039665222 9.252587318420410 9.513601303100586 
47 1 7.333081245422363 -9.096459388732910 -4.479483604431152 
48 1 4.867694377899170 -8.968172073364258 8.767652511596680 
49 1 3.621469736099243 11.467596054077148 -5.794418811798096 
50 1 -10.693853378295898 -5.673985481262207 2.221256732940674 
51 1 -6.095972061157227 10.444871902465820 5.377087593078613 
52 1 -11.018214225769043 -0.621931016445160 -0.873562991619110 
53 1 -1.988823175430298 0.975790679454803 0.945619821548462 
54 1 -1.515913128852844 -0.652577579021454 -2.247259140014648 
55 1 3.664817571640015 -4.371810436248779 9.791167259216309 
56 1 2.990384817123413 8.258744239807129 -4.212736606597900 
57 1 6.888028621673584 -5.826484680175781 -10.533892631530762 
58 1 3.781348943710327 5.451681613922119 -1.982041001319885 
59 1 3.809409856796265 9.293788909912109 -9.033821105957031 
60 1 0.610150098800659 5.445310115814209 2.813936948776245 
61 1 2.359700918197632 0.972866654396057 -7.611831665039062 
62 1 8.494269371032715 7.535084724426270 -6.029348373413086 
63 1 -1.796170949935913 -5.526762962341309 -0.293699830770493 
64 1 -5.012533664703369 -6.672043800354004 0.775486826896667 
65 1 8.814569473266602 6.064350128173828 -2.757486104965210 
66 1 0.326228648424149 -3.240318059921265 -8.941953659057617 
67 1 5.455353736877441 -3.809787750244141 1.868698239326477 
68 1 9.593294143676758 7.371709346771240 10.873483657836914 
69 1 -11.488319396972656 -9.686169624328613 -2.320002794265747 
70 1 -6.940893650054932 -2.970929861068726 -6.483693122863770 
71 1 -1.077073931694031 9.645627975463867 -6.193478584289551 
72 1 3.798959732055664 1.148294568061829 2.508573770523071 
73 1 -7.593212127685547 0.423329770565033 -4.942245483398438 
74 1 -3.561414003372192 4.568737506866455 -10.500055313110352 
75 1 -10.611337661743164 -5.996432781219482 10.877374649047852 
76 1 3.665879487991333 10.538400650024414 3.710160970687866 
77 1 3.360693931579590 10.141129493713379 -1.541068792343140 
78 1 10.787056922912598 11.196584701538086 0.256664067506790 
79 1 4.005187034606934 -9.738954544067383 -2.942521810531616 
80 1 10.068655967712402 0.584322512149811 -9.634407043457031 
81 1 -9.947723388671875 0.724142611026764 8.454084396362305 
82 1 1.711900830268860 -6.423914432525635 0.121272660791874 
83 1 -2.455436944961548 9.459368705749512 0.305302739143372 
84 1 0.695541799068451 -0.229513272643089 -10.764910697937012 
85 1 -7.842412948608398 -3.116131544113159 10.909719467163086 
86 1 -8.358030319213867 9.462909698486328 1.736562490463257 
87 1 7.755055904388428 8.258819580078125 7.999374866485596 
88 1 -2.896871328353882 1.826462268829346 -6.456728458404541 
89 1 -2.786747217178345 5.345643997192383 4.703866004943848 
90 1 9.630170822143555 -4.312351703643799 -8.470988273620605 
91 1 3.356440544128418 11.610878944396973 6.915681362152100 
92 1 3.589352369308472 1.601254224777222 -3.126024961471558 
93 1 -7.141666412353516 8.086180686950684 9.966840744018555 
94 1 -8.450448989868164 7.666395187377930 5.052670001983643 
95 1 -8.563457489013672 10.267311096191406 -10.491631507873535 
96 1 5.926018714904785 4.723077774047852 -9.808780670166016 
97 1 -2.029973030090332 -9.262678146362305 9.842593193054199 
98 1 10.581875801086426 -7.418603420257568 -0.016769774258137 
99 1 0.289267659187317 -6.523288249969482 10.309474945068359 
100 1 -7.082933902740479 8.107464790344238 -1.995236754417419 
101 1 4.033447742462158 -1.002304792404175 5.639071941375732 
102 1 6.574395179748535 1.812734127044678 10.963360786437988 
103 1 0.413074672222137 -9.893066406250000 7.326377868652344 
104 1 -10.320139884948730 0.924498319625854 -11.262401580810547 
105 1 7.285643100738525 11.093845367431641 -5.586788654327393 
106 1 -9.711980819702148 -1.871700048446655 -4.193463325500488 
107 1 -5.234381675720215 -4.746784687042236 10.090549468994141 
108 1 -1.655192732810974 6.302293777465820 -4.380549430847168 
109 1 -10.451994895935059 8.139256477355957 -8.053471565246582 
110 1 -1.224502563476562 6.450984954833984 10.685152053833008 
111 1 -1.751669645309448 7.792169094085693 -9.444940567016602 
112 1 7.544530868530273 -7.544722557067871 3.946237802505493 
113 1 11.148996353149414 0.579059600830078 -4.740850925445557 
114 1 11.310678482055664 8.915350914001465 -4.407839298248291 
115 1 6.735651016235352 3.531627893447876 -3.230181932449341 
116 1 -7.907455444335938 -7.679438591003418 4.247073650360107 
117 1 -2.210443258285522 -3.676702499389648 7.953205585479736 
118 1 -3.061013698577881 8.936133384704590 6.404937267303467 
119 1 3.602205038070679 -7.073284149169922 -11.573204040527344 
120 1 11.219652175903320 9.669338226318359 8.674998283386230 
121 1 9.805283546447754 4.086894512176514 -5.717859745025635 
122 1 -6.617736816406250 11.301382064819336 -3.940063476562500 
123 1 11.581085205078125 4.027659416198730 8.901610374450684 
124 1 7.484708786010742 -11.403809547424316 8.677065849304199 
125 1 -7.214787483215332 0.564186573028564 11.079892158508301 
126 1 -9.749866485595703 1.388666152954102 3.073565721511841 
127 1 -10.768659591674805 2.767235040664673 -7.685423851013184 
128 1 -2.652554512023926 0.092722930014133 7.771817684173584 
129 1 2.250475883483887 -6.691768646240234 7.016358852386475 
130 1 -3.994429349899292 -4.295869350433350 -7.644342899322510 
131 1 -3.644312381744385 6.356769084930420 -1.430979728698730 
132 1 4.903149604797363 -7.738238334655762 1.289127707481384 
133 1 -5.491370677947998 7.548895835876465 -9.715197563171387 
134 1 -8.040570259094238 0.372404932975769 -8.479109764099121 
135 1 7.311450481414795 9.474519729614258 -8.970837593078613 
136 1 -8.329013824462891 -8.757180213928223 8.940621376037598 
137 1 -1.601937532424927 -3.957153081893921 -3.801074981689453 
138 1 -7.220462322235107 -0.847673416137695 1.541461586952209 
139 1 -5.150772571563721 -10.722115516662598 8.313781738281250 
140 1 -4.416762351989746 3.814927577972412 -3.746927976608276 
141 1 8.527525901794434 -9.090874671936035 -10.596011161804199 
142 1 1.651018500328064 8.350844383239746 1.241237521171570 
143 1 0.297555953264236 1.940229773521423 3.891296625137329 
144 1 8.757987022399902 11.005270957946777 -2.370989322662354 
145 1 7.344343662261963 -9.153039932250977 -0.873566448688507 
146 1 -11.497961044311523 -2.596123695373535 -11.073204994201660 
147 1 -1.838776111602783 1.514567494392395 11.243182182312012 
148 1 5.635649204254150 0.891587138175964 -0.539799213409424 
149 1 -4.892341136932373 -4.884955883026123 -2.430333137512207 
150 1 6.488404273986816 -2.390081882476807 -1.460777759552002 
151 1 9.561661720275879 10.948298454284668 -11.527803421020508 
152 1 0.994424939155579 -2.997117519378662 -1.202247262001038 
153 1 -1.284229874610901 -2.683148145675659 1.960883140563965 
154 1 5.123519420623779 6.914525032043457 -6.877488613128662 
155 1 9.334302902221680 -1.688836455345154 0.832350432872772 
156 1 -6.397587299346924 2.841745615005493 1.685874223709106 
157 1 5.925414085388184 1.867945194244385 7.364350795745850 
158 1 9.877085685729980 -0.174114927649498 10.037220954895020 
159 1 -7.550440311431885 5.994124889373779 2.003701210021973 
160 1 -3.601933956146240 4.044476985931396 9.112808227539062 
161 1 -6.614480495452881 0.533039808273315 4.946578025817871 
162 1 -3.581389904022217 9.384018898010254 9.884058952331543 
163 1 11.575874328613281 -7.329730510711670 -9.224826812744141 
164 1 -2.293758392333984 -4.811393260955811 -11.021650314331055 
165 1 7.696189880371094 3.996737241744995 0.201887235045433 
166 1 -7.654644489288330 10.703969955444336 -7.060891151428223 
167 1 -5.608431816101074 -8.506875038146973 -3.050750255584717 
168 1 8.155713081359863 -2.456922531127930 -10.308889389038086 
169 1 1.138057231903076 -8.869128227233887 -6.841063499450684 
170 1 -0.265175580978394 9.740558624267578 -2.640002250671387 
171 1 6.938859462738037 -5.854586124420166 8.958943367004395 
172 1 -8.645521163940430 7.425681114196777 -5.488374233245850 
173 1 3.439678907394409 -2.275724172592163 -3.444213867187500 
174 1 3.075778722763062 -5.781589984893799 3.696490526199341 
175 1 -11.310119628906250 -9.387439727783203 7.001201152801514 
176 1 -5.014118671417236 6.360936164855957 -6.215013980865479 
177 1 8.994879722595215 -4.983287811279297 1.821978211402893 
178 1 4.952250957489014 4.028821468353271 4.433987140655518 
179 1 6.150981903076172 -10.232241630554199 -7.947198867797852 
180 1 -11.054354667663574 4.604703903198242 -11.194121360778809 
181 1 -10.994633674621582 -1.902356147766113 -7.770416259765625 
182 1 2.371219635009766 -9.863943099975586 0.192838311195374 
183 1 4.000092506408691 8.146872520446777 8.076488494873047 
184 1 -3.792646408081055 -8.287636756896973 -10.307836532592773 
185 1 -7.285274028778076 -6.923891067504883 -11.044778823852539 
186 1 0.333886116743088 1.665966391563416 -4.510731220245361 
187 1 -5.367298603057861 -1.895271062850952 -9.971024513244629 
188 1 9.401611328125000 8.228259086608887 0.259721785783768 
189 1 9.558723449707031 6.201284885406494 -8.853046417236328 
190 1 2.465692520141602 -10.630929946899414 10.215304374694824 
191 1 -6.609050273895264 4.382087707519531 11.193834304809570 
192 1 10.476523399353027 10.595132827758789 -7.252182483673096 
193 1 -0.289267599582672 11.431229591369629 1.965956449508667 
194 1 2.302564859390259 7.101727962493896 -11.155659675598145 
195 1 -8.979145050048828 -8.352909088134766 -4.396281719207764 
196 1 5.719057083129883 -4.552827358245850 5.554475307464600 
197 1 -8.499997138977051 -4.830358505249023 -3.416972160339355 
198 1 7.519893169403076 2.021799802780151 -8.044483184814453 
199 1 8.845299720764160 -1.260061740875244 -6.691443443298340 
200 1 10.778232574462891 -3.998849391937256 -1.277188062667847 
201 1 -9.638217926025391 -10.980110168457031 4.411119937896729 
202 1 3.935013294219971 -3.837253093719482 -9.829545974731445 
203 1 8.353842735290527 3.013215065002441 3.717877388000488 
204 1 -8.414967536926270 -7.052664279937744 -0.337348878383636 
205 1 -6.829123497009277 2.655293226242065 8.052008628845215 
206 1 10.301648139953613 5.805248737335205 2.116367340087891 
207 1 -6.499478816986084 -6.460434913635254 -7.429295063018799 
208 1 -2.209363937377930 -10.449633598327637 -8.078922271728516 
209 1 -0.026936240494251 -8.313610076904297 2.527572870254517 
210 1 5.277877330780029 -0.459667414426804 -5.969736576080322 
211 1 5.834751129150391 7.911527633666992 11.314225196838379 
212 1 -4.069864749908447 -1.118644475936890 3.196817874908447 
213 1 2.687186479568481 5.965602874755859 5.988853931427002 
214 1 6.208006381988525 -10.386217117309570 5.449203968048096 
215 1 -1.535360336303711 10.992659568786621 -11.117776870727539 
216 1 6.410369873046875 9.269081115722656 1.852563858032227 
217 1 -2.383609533309937 -1.041378140449524 -7.882070064544678 
218 1 4.905963897705078 3.216651678085327 -6.310665130615234 
219 1 7.089667797088623 -6.207941055297852 -6.670219421386719 
220 1 -6.010588645935059 -1.103143692016602 8.112239837646484 
221 1 -0.918658196926117 8.270386695861816 3.648272275924683 
222 1 -2.024482011795044 -7.210400104522705 6.817533016204834 
223 2 -5.229562759399414 -1.426878690719604 1.347922444343567 
224 2 -9.110181808471680 8.460259437561035 -1.383430480957031 
225 2 10.434185981750488 9.577110290527344 4.669470787048340 
226 2 6.425075531005859 2.618582010269165 -0.333689868450165 
227 2 -4.349308490753174 -8.329220771789551 1.290299057960510 
228 2 9.173304557800293 -2.805352449417114 -5.418756008148193 
229 2 9.226767539978027 -8.852570533752441 -5.218249797821045 
230 2 -8.125012397766113 7.655777931213379 1.024246096611023 
231 2 -6.137950897216797 9.543098449707031 -3.176438093185425 
232 2 11.037635803222656 11.096706390380859 10.138154983520508 
233 2 -5.828332424163818 2.744203090667725 -0.544178664684296 
234 2 6.638541698455811 -10.797425270080566 3.639699459075928 
235 2 7.244813919067383 -4.348747730255127 -2.229653596878052 
236 2 10.675010681152344 -5.930775165557861 -1.293078541755676 
237 2 9.158696174621582 10.067383766174316 -8.555424690246582 
238 2 -4.991284370422363 -10.170368194580078 -10.896222114562988 
239 2 10.983643531799316 -3.604263544082642 -7.280138969421387 
240 2 -3.549501180648804 8.009498596191406 -9.939821243286133 
241 2 7.377541542053223 7.725061893463135 9.981523513793945 
242 2 6.158509731292725 3.505035877227783 -8.078824996948242 
243 2 -9.498251914978027 -11.300011634826660 -9.649353027343750 
244 2 -2.792244911193848 8.529848098754883 4.395926475524902 
245 2 -1.174645662307739 9.510062217712402 -9.993739128112793 
246 2 4.408863067626953 -10.605629920959473 -7.017029285430908 
247 2 6.319650650024414 -6.039886951446533 -8.553904533386230 
248 2 9.351629257202148 10.019015312194824 -0.657743334770203 
249 2 -6.278024673461914 -8.991031646728516 8.129254341125488 
250 2 -6.944971084594727 -10.881679534912109 -7.953884124755859 
251 2 -3.925766706466675 10.221001625061035 -1.070084571838379 
252 2 -11.338539123535156 -10.040484428405762 11.486645698547363 
253 2 2.202991008758545 4.187629699707031 8.313551902770996 
254 2 -9.301330566406250 1.773005723953247 -8.354257583618164 
255 2 -11.562053680419922 7.422021389007568 -3.283399581909180 
256 2 -6.841122150421143 10.597977638244629 1.903651595115662 
257 2 10.915734291076660 0.654194056987762 -0.594839453697205 
258 2 10.383839607238770 2.582655191421509 -4.440512657165527 
259 2 -11.529023170471191 8.536308288574219 7.282261848449707 
260 2 11.201042175292969 10.807888984680176 -10.464446067810059 
261 2 4.654812335968018 -3.684658050537109 -8.011919975280762 
262 2 4.709946155548096 5.204088687896729 2.871894359588623 
263 2 -0.517653107643127 -8.605345726013184 -2.139960765838623 
264 2 -4.020777702331543 -4.990352630615234 11.538423538208008 
265 2 -3.696259260177612 0.849090695381165 -0.044757142663002 
266 2 -3.276077985763550 -3.707003116607666 6.409423828125000 
267 2 -2.474889039993286 -10.546310424804688 -2.710975885391235 
268 2 -4.381998062133789 8.136362075805664 -5.195461273193359 
269 2 9.317356109619141 7.278450965881348 -1.371480703353882 
270 2 -9.668756484985352 10.727223396301270 11.315114974975586 
271 2 -7.827815055847168 -8.815277099609375 -10.232422828674316 
272 2 3.435136079788208 -4.729744434356689 -11.587682723999023 
273 2 -8.740634918212891 -6.003201007843018 -1.882256031036377 
274 2 10.183332443237305 -3.203186511993408 -10.101645469665527 
275 2 -8.990542411804199 -0.169338047504425 2.105538129806519 
276 2 5.397150993347168 -1.032927989959717 -0.606756925582886 
277 2 7.814210891723633 4.506551265716553 -1.757448673248291 
278 2 -3.440048217773438 -0.067609041929245 -6.079629421234131 
279 2 7.339207649230957 8.472292900085449 0.171746000647545 
280 2 -4.683512210845947 -11.037029266357422 1.529848098754883 
281 2 2.526855707168579 -9.618327140808105 -1.656033039093018 
282 2 -10.325345993041992 -3.792875289916992 -3.781341075897217 
283 2 -9.767922401428223 -8.254247665405273 7.557458400726318 
284 2 -8.385383605957031 1.072413802146912 4.416670799255371 
285 2 9.020735740661621 2.249188423156738 -9.736154556274414 
286 2 7.869685649871826 -2.771490812301636 11.197387695312500 
287 2 -2.163488149642944 -1.606413722038269 3.686026334762573 
288 2 9.281302452087402 2.649138689041138 -0.235079631209373 
289 2 -6.773147583007812 6.363773822784424 10.943913459777832 
290 2 -7.659194469451904 9.151854515075684 6.236026287078857 
291 2 11.256921768188477 7.118111610412598 -8.482928276062012 
292 2 2.024829149246216 6.030346870422363 -1.477257847785950 
293 2 -8.035881996154785 -3.411348342895508 -4.834145545959473 
294 2 -3.258142948150635 0.605801343917847 2.512420892715454 
295 2 -10.369976043701172 -6.122015953063965 -8.457226753234863 
296 2 -4.255434513092041 6.251789569854736 5.512619018554688 
297 2 3.588749885559082 -5.894343852996826 -9.311170578002930 
298 2 -1.054490566253662 11.278319358825684 -7.511333465576172 
299 2 -8.759762763977051 -10.253610610961914 -4.241503238677979 
300 2 -2.028323650360107 7.288795471191406 6.542500972747803 
301 2 1.408675193786621 -11.068825721740723 -6.386761188507080 
302 2 -8.335909843444824 1.843794107437134 -3.738744735717773 
303 2 -7.350344181060791 -5.973217964172363 -9.290285110473633 
304 2 -6.667425155639648 -3.549066305160522 9.449523925781250 
305 2 -2.046460628509521 0.939731121063232 -8.118126869201660 
306 2 -2.019759893417358 -9.667984962463379 0.157894611358643 
307 2 -2.495881795883179 3.841034650802612 3.436289787292480 
308 2 2.803925275802612 -0.338085711002350 1.603514671325684 
309 2 2.052330017089844 -3.874324560165405 -2.723233222961426 
310 2 -9.238430023193359 -3.952255487442017 7.101334571838379 
311 2 7.553152084350586 -11.515469551086426 6.341602325439453 
312 2 -5.190333843231201 -2.323137521743774 -5.930301189422607 
313 2 5.919988155364990 7.973867416381836 7.222837924957275 
314 2 1.376364350318909 -6.174950122833252 -4.300694942474365 
315 2 4.094456672668457 3.949520349502563 -9.915163993835449 
316 2 0.157444372773170 8.639635086059570 5.178044319152832 
317 2 1.061095952987671 -10.921101570129395 1.055601477622986 
318 2 -8.156700134277344 -3.486948728561401 -7.818311214447021 
319 2 5.995309829711914 -10.721234321594238 9.748309135437012 
320 2 -11.111948966979980 -11.101131439208984 0.918163836002350 
321 2 -3.325827360153198 -4.625365257263184 -3.446913719177246 
322 2 1.628465175628662 7.452770233154297 -5.417058944702148 
323 2 -8.543626785278320 1.925580620765686 7.870000839233398 
324 2 10.224703788757324 -8.694307327270508 -9.354233741760254 
325 2 -4.387249469757080 -10.195116996765137 6.483243942260742 
326 2 11.301704406738281 -0.944838702678680 -9.289164543151855 
327 2 -10.705336570739746 -4.030694484710693 -0.838922917842865 
328 2 -2.064487695693970 3.019390344619751 0.378582984209061 
329 2 8.422719001770020 11.569685935974121 10.320130348205566 
330 2 7.302747726440430 10.065883636474609 8.428671836853027 
331 2 9.941191673278809 6.754618644714355 5.750779628753662 
332 2 -7.004398345947266 -3.884816646575928 4.441751956939697 
333 2 -2.358525991439819 -7.491243362426758 -6.873841285705566 
334 2 -6.575497150421143 1.683159470558167 -8.906316757202148 
335 2 3.030277252197266 6.166622161865234 -3.721481561660767 
336 2 5.960659503936768 -3.662942171096802 -0.054785642772913 
337 2 7.830025672912598 -10.957734107971191 -1.341869950294495 
338 2 -1.366645812988281 -5.795475959777832 10.867491722106934 
339 2 -9.612196922302246 0.732374310493469 -1.052775144577026 
340 2 -9.056293487548828 -6.316664695739746 -4.495728492736816 
341 2 7.298163414001465 9.793600082397461 -2.590175390243530 
342 2 7.827736377716064 3.325629234313965 10.388637542724609 
343 2 -11.110952377319336 5.277083396911621 5.355873584747314 
344 2 8.318905830383301 7.735903739929199 -8.066951751708984 
345 2 -5.051998138427734 4.743146896362305 -7.348640441894531 
346 2 -11.186310768127441 2.990805864334106 -1.097038269042969 
347 2 4.940331459045410 -2.728407144546509 5.419740200042725 
348 2 10.439621925354004 4.819717884063721 -2.448171138763428 
349 2 4.684938430786133 7.928282260894775 9.803808212280273 
350 2 9.536031723022461 -10.979705810546875 1.114340305328369 
351 2 -5.070882320404053 -7.557733058929443 -6.214449882507324 
352 2 4.937828063964844 2.973062753677368 10.887175559997559 
353 2 -6.066476345062256 -11.243844032287598 4.284654140472412 
354 2 1.057148337364197 -5.312298774719238 6.247422695159912 
355 2 3.585555553436279 -10.656780242919922 8.616654396057129 
356 2 2.392560720443726 -5.879223823547363 1.849439740180969 
357 2 3.004318475723267 -2.649063348770142 10.165057182312012 
358 2 1.939207911491394 -1.909623265266418 -4.528613567352295 
359 2 -4.290812492370605 -8.909707069396973 -1.735106825828552 
360 2 9.869634628295898 2.175025224685669 2.982226371765137 
361 2 -11.572851181030273 -5.936013698577881 7.053781509399414 
362 2 3.281907320022583 -11.621597290039062 -0.193606749176979 
363 2 8.718297958374023 -2.452239990234375 -8.244644165039062 
364 2 -8.686472892761230 -3.588658332824707 -10.826124191284180 
365 2 -9.347965240478516 6.771443843841553 6.769240856170654 
366 2 -4.536836624145508 11.176897048950195 -3.940748691558838 
367 2 -7.776659011840820 4.476405620574951 -10.664381027221680 
368 2 -0.916338920593262 -5.525185108184814 -2.210314273834229 
369 2 0.260210275650024 -7.672064304351807 -9.501602172851562 
370 2 -2.359981298446655 8.772287368774414 -7.610948562622070 
371 2 -8.326234817504883 -6.044060707092285 -6.906112670898438 
372 2 -4.024105072021484 -7.723325729370117 4.052741527557373 
373 2 -2.329124450683594 -1.801821589469910 8.595987319946289 
374 2 11.192252159118652 5.185994625091553 -4.860730171203613 
375 2 -1.605524778366089 -3.132967233657837 10.855263710021973 
376 2 -0.266465246677399 -6.394621372222900 0.501121759414673 
377 2 4.508749961853027 -2.241014480590820 -5.436912536621094 
378 2 10.160892486572266 -3.802560806274414 -3.090593814849854 
379 2 6.918108940124512 -9.965660095214844 -11.194659233093262 
380 2 -11.535567283630371 -8.208846092224121 5.524870395660400 
381 2 -6.757563591003418 4.504079341888428 3.078214645385742 
382 2 10.491405487060547 9.684042930603027 1.593246579170227 
383 2 -5.711149692535400 -0.166962787508965 -1.631847381591797 
384 2 -0.433175712823868 -8.297383308410645 10.871120452880859 
385 2 -9.919997215270996 8.660337448120117 -9.915268898010254 
386 2 -7.384383201599121 4.378947734832764 -3.047563552856445 
387 2 -5.207469463348389 2.948804855346680 8.858034133911133 
388 2 7.075406551361084 6.915134906768799 -2.714540719985962 
389 2 -7.983567237854004 7.878489494323730 -3.745831012725830 
390 2 4.152639865875244 10.088956832885742 7.678955078125000 
391 2 -11.451147079467773 -0.489989966154099 9.095125198364258 
392 2 1.869632601737976 5.452950000762939 -7.040048599243164 
393 2 -7.568669795989990 -1.196589946746826 -6.193819046020508 
394 2 4.719790458679199 -0.050184298306704 3.901059389114380 
395 2 -0.954955279827118 5.340553760528564 1.570257902145386 
396 2 10.860345840454102 -1.945693254470825 4.181127071380615 
397 2 -6.661825180053711 3.434335231781006 -5.596860408782959 
398 2 -1.078995943069458 -0.986958563327789 -6.531682014465332 
399 2 -3.682115077972412 -9.724646568298340 9.053498268127441 
400 2 -0.538219571113586 6.993785381317139 -8.062984466552734 
401 2 9.792441368103027 -4.530202865600586 3.715719461441040 
402 2 -10.961586952209473 -4.536176681518555 4.925095558166504 
403 2 -6.559337139129639 -5.050485134124756 -3.305503368377686 
404 2 3.666213274002075 -3.219156265258789 1.738077402114868 
405 2 -8.172169685363770 -5.001985073089600 0.583837747573853 
406 2 2.947196483612061 0.629028856754303 6.324796676635742 
407 2 5.581048011779785 -0.062052961438894 6.604129791259766 
408 2 -10.157397270202637 -6.639048576354980 0.599022448062897 
409 2 5.194472789764404 -5.804925441741943 1.135654449462891 
410 2 5.667564392089844 -4.280009746551514 -10.579146385192871 
411 2 1.193171620368958 -2.135045289993286 0.633419215679169 
412 2 -0.910719037055969 -10.147213935852051 2.595878839492798 
413 2 -5.025382518768311 7.628572463989258 -7.767694950103760 
414 2 -7.645231723785400 -1.525960803031921 -0.268070638179779 
415 2 3.831901073455811 -5.352298259735107 5.740041255950928 
416 2 9.422284126281738 -1.754816055297852 6.237680912017822 
417 2 8.263847351074219 -4.228919506072998 8.935992240905762 
418 2 -6.255759716033936 -10.829351425170898 -5.507465839385986 
419 2 -1.049355030059814 -0.544389545917511 11.283895492553711 
420 2 3.475945234298706 7.690611362457275 -7.766208171844482 
421 2 -10.636459350585938 0.665229201316833 6.629483222961426 
422 2 9.264498710632324 7.227810859680176 -4.290395736694336 
423 2 -1.753568291664124 4.652063846588135 6.140548229217529 
424 2 4.155277729034424 -9.655730247497559 1.151700377464294 
425 2 -0.220162644982338 -10.991670608520508 5.799808502197266 
426 2 -6.531830787658691 -0.632263302803040 3.377369403839111 
427 2 8.037575721740723 -2.048015594482422 -0.430265069007874 
428 2 -2.793352127075195 -1.637282133102417 -1.175153374671936 
429 2 3.927556753158569 2.657415866851807 -4.689704895019531 
430 2 1.801822066307068 -10.027983665466309 -8.601117134094238 
431 2 -5.301554679870605 8.591421127319336 9.979365348815918 
432 2 -11.102119445800781 -9.953899383544922 3.521449565887451 
433 2 -10.398227691650391 8.085617065429688 4.907589912414551 
434 2 6.098958492279053 -5.294727325439453 7.320437908172607 
435 2 -1.662339687347412 -6.283418178558350 5.127332687377930 
436 2 9.852975845336914 0.396357029676437 -2.932395219802856 
437 2 -11.036992073059082 -3.773907184600830 2.030681371688843 
438 2 -4.739714145660400 10.602893829345703 -8.401289939880371 
439 2 -3.359553575515747 -10.380040168762207 3.955364227294922 
440 2 -1.915519118309021 1.890866994857788 5.032040119171143 
441 2 -6.771196365356445 -10.885375022888184 -0.002533790422603 
442 2 1.420873999595642 8.293917655944824 11.049832344055176 
443 2 -0.588405430316925 -9.472390174865723 -7.521373748779297 
444 2 -6.806258678436279 4.616855144500732 0.683690726757050 
445 2 -7.354177951812744 1.256209969520569 -6.651094436645508 
446 2 7.382700920104980 1.431599974632263 3.911149263381958 
447 2 -6.655158042907715 0.607751727104187 9.119550704956055 
448 2 0.243168681859970 3.821168184280396 3.715631484985352 
449 2 9.315404891967773 5.806862354278564 -6.861682891845703 
450 2 11.572151184082031 -6.539315223693848 3.616979598999023 
451 2 0.741679728031158 2.427703380584717 5.834188461303711 
452 2 2.646745920181274 -1.566768646240234 4.375162124633789 
453 2 2.585650205612183 -1.758987426757812 -1.645062923431396 
454 2 -4.459042072296143 3.138041734695435 1.951118588447571 
455 2 10.189387321472168 0.735307753086090 5.818630218505859 
456 2 -6.389684677124023 11.345015525817871 7.171128749847412 
457 2 4.048151493072510 8.064972877502441 -10.729370117187500 
458 2 -2.732882022857666 0.469273328781128 9.705788612365723 
459 2 5.937925338745117 5.144755363464355 9.319959640502930 
460 2 -1.724235415458679 -5.493083477020264 7.672743320465088 
461 2 6.892843723297119 8.346370697021484 -10.452054023742676 
462 2 11.445846557617188 5.832551002502441 8.029312133789062 
463 2 -1.129725575447083 6.324076652526855 4.085912704467773 
464 2 0.553277909755707 -1.337268829345703 6.620218276977539 
465 2 5.435593128204346 2.050980567932129 -2.605337858200073 
466 2 9.767937660217285 -4.531200408935547 6.306902885437012 
467 2 -4.749074459075928 4.518893241882324 10.833434104919434 
468 2 9.641714096069336 -10.680824279785156 -10.662056922912598 
469 2 -8.779762268066406 -9.275558471679688 4.958825111389160 
470 2 -8.858099937438965 -8.981964111328125 0.143148913979530 
471 2 2.603883028030396 -7.286919593811035 5.072289943695068 
472 2 -0.518997669219971 1.139980792999268 -10.384890556335449 
473 2 6.727456569671631 -7.459965705871582 -5.245644569396973 
474 2 -2.455121517181396 -6.688597679138184 -9.906595230102539 
475 2 -1.035370588302612 9.957489967346191 -0.898079514503479 