ITEM: TIMESTEP
0
ITEM: NUMBER OF ATOMS
1008
ITEM: BOX BOUNDS xy xz yz pp pp pp
0.0 23.3006801605 0.0
0.0 23.3006801605 0.0
0.0 23.3006801605 0.0
ITEM: ATOMS id type x y z
1 1 4.221964359283447 -7.118811607360840 -8.097554206848145 
2 1 0.125874161720276 6.212569236755371 -1.415804386138916 
3 1 -11.007251739501953 5.530746459960938 -3.288977384567261 
4 1 -1.351697564125061 3.176085472106934 -1.442431688308716 
5 1 5.932883262634277 -11.633975028991699 -11.510115623474121 
6 1 -0.004588709678501 -2.624728441238403 10.476298332214355 
7 1 8.030359268188477 0.139859184622765 -3.378406286239624 
8 1 -4.185271263122559 -1.188673973083496 -4.583213329315186 
9 1 -9.717452049255371 10.312466621398926 -1.593182802200317 
10 1 5.212707042694092 -0.366377145051956 -9.567073822021484 
11 1 9.613183021545410 2.113527536392212 6.977394104003906 
12 1 9.041187286376953 -2.824836492538452 4.548788547515869 
13 1 0.855651617050171 3.346878767013550 9.667891502380371 
14 1 -6.769994735717773 4.440097332000732 -1.307699322700500 
15 1 -5.302292346954346 -3.827737331390381 5.485049247741699 
16 1 3.022855997085571 -9.067861557006836 4.366882801055908 
17 1 -10.321941375732422 3.608850240707397 5.743645668029785 
18 1 -9.607445716857910 2.228020668029785 -2.280219793319702 
19 1 -0.824533283710480 -1.407102584838867 5.106717109680176 
20 1 -10.318716049194336 -2.551578283309937 8.302230834960938 
21 1 10.852963447570801 -5.674428462982178 5.234101772308350 
22 1 -0.059903249144554 -7.240573883056641 -3.382897853851318 
23 1 -5.832477092742920 -7.096123218536377 7.368197441101074 
24 1 7.779862880706787 4.768658638000488 8.942154884338379 
25 1 7.254230499267578 -2.613276720046997 9.468577384948730 
26 1 -5.572332859039307 6.460644721984863 6.977001667022705 
27 1 8.093710899353027 -10.792551040649414 2.345553159713745 
28 1 0.308553755283356 10.359001159667969 6.015836715698242 
29 1 -3.054603576660156 -11.025150299072266 -4.527627468109131 
30 1 -6.136796951293945 3.084944963455200 -7.465449333190918 
31 1 -1.423168182373047 5.197426319122314 -7.505724430084229 
32 1 -11.457545280456543 6.919517993927002 6.269869327545166 
33 1 4.646274089813232 6.065383911132812 1.164083123207092 
34 1 2.129353046417236 3.421106338500977 -0.018249535933137 
35 1 0.424680829048157 -1.526558279991150 -5.504239082336426 
36 1 -10.455434799194336 -11.319273948669434 10.226247787475586 
37 1 11.552678108215332 -0.595171391963959 5.509111881256104 
38 1 -4.666833400726318 1.372533798217773 -1.588121533393860 
39 1 4.424381256103516 -4.122906208038330 -6.132344245910645 
40 1 -7.215623378753662 -4.600007534027100 2.470672607421875 
41 1 -3.355280876159668 -7.048691749572754 -5.233776569366455 
42 1 3.167363882064819 -10.336897850036621 -9.980662345886230 
43 1 -8.504991531372070 5.416090011596680 -9.144084930419922 
44 1 -2.356461763381958 -9.053118705749512 -1.572412848472595 
45 1 -8.337985992431641 10.850933074951172 7.559043407440186 
46 1 0.676399827003479 9.232702255249023 9.521914482116699 
47 1 7.318757534027100 -9.090523719787598 -4.482192039489746 
48 1 4.842061042785645 -8.906421661376953 8.742505073547363 
49 1 3.632702350616455 11.460431098937988 -5.790229797363281 
50 1 -10.751258850097656 -5.646760940551758 2.215013742446899 
51 1 -6.068710327148438 10.431588172912598 5.379076480865479 
52 1 -11.027346611022949 -0.604433238506317 -0.912711977958679 
53 1 -2.005409240722656 0.980562031269073 0.954199910163879 
54 1 -1.527161359786987 -0.714793324470520 -2.179433107376099 
55 1 3.804545402526855 -4.329289913177490 9.859496116638184 
56 1 3.000934362411499 8.239455223083496 -4.216498374938965 
57 1 6.887887477874756 -5.802442550659180 -10.512661933898926 
58 1 3.791644096374512 5.450244426727295 -1.981171250343323 
59 1 3.800640106201172 9.297745704650879 -9.049946784973145 
60 1 0.589381575584412 5.444268226623535 2.846616744995117 
61 1 2.393871545791626 0.985236823558807 -7.408143043518066 
62 1 8.523866653442383 7.539119243621826 -6.071337699890137 
63 1 -1.838027119636536 -5.566173076629639 -0.285047382116318 
64 1 -5.063863277435303 -6.674256324768066 0.789873480796814 
65 1 8.846218109130859 6.092854022979736 -2.778582334518433 
66 1 0.275492489337921 -3.295171976089478 -8.877742767333984 
67 1 5.403390884399414 -3.804640769958496 1.872626423835754 
68 1 9.697525978088379 7.386824131011963 10.805595397949219 
69 1 -11.498496055603027 -9.682772636413574 -2.328303813934326 
70 1 -6.918165683746338 -2.983417272567749 -6.480305671691895 
71 1 -1.055168628692627 9.644189834594727 -6.191834926605225 
72 1 3.735487461090088 1.106550693511963 2.507787466049194 
73 1 -7.570660114288330 0.410122275352478 -4.954259395599365 
74 1 -3.525910139083862 4.538967132568359 -10.458133697509766 
75 1 -10.603652000427246 -6.029599666595459 10.898874282836914 
76 1 3.643757104873657 10.573621749877930 3.710316896438599 
77 1 3.351263761520386 10.134781837463379 -1.544224023818970 
78 1 10.778927803039551 11.206014633178711 0.250491797924042 
79 1 3.996748447418213 -9.744342803955078 -2.933907508850098 
80 1 10.089985847473145 0.573673546314240 -9.621184349060059 
81 1 -9.910935401916504 0.751458585262299 8.453725814819336 
82 1 1.683181285858154 -6.460043907165527 0.108466677367687 
83 1 -2.441897630691528 9.473307609558105 0.310230940580368 
84 1 1.129585146903992 -0.152438730001450 -10.549661636352539 
85 1 -7.896512508392334 -3.087272882461548 10.932543754577637 
86 1 -8.353081703186035 9.475345611572266 1.727883577346802 
87 1 7.732160568237305 8.272613525390625 7.976317882537842 
88 1 -2.855071067810059 1.805753231048584 -6.443041324615479 
89 1 -2.779933691024780 5.324114799499512 4.726390361785889 
90 1 9.648894309997559 -4.303928852081299 -8.466915130615234 
91 1 3.341920137405396 11.613324165344238 6.927131652832031 
92 1 3.625316381454468 1.617750406265259 -3.127695798873901 
93 1 -7.110449314117432 8.086295127868652 9.966657638549805 
94 1 -8.425096511840820 7.672179222106934 5.043344974517822 
95 1 -8.550506591796875 10.261980056762695 -10.490519523620605 
96 1 5.949946403503418 4.718129634857178 -9.785420417785645 
97 1 -2.002059698104858 -9.214912414550781 9.825109481811523 
98 1 10.569123268127441 -7.421962738037109 0.003459090832621 
99 1 0.289791047573090 -6.384101390838623 10.337324142456055 
100 1 -7.074899196624756 8.121153831481934 -2.013280868530273 
101 1 4.050039768218994 -0.997962176799774 5.608214855194092 
102 1 6.642181873321533 1.901311993598938 10.953676223754883 
103 1 0.459512680768967 -9.815402984619141 7.288472175598145 
104 1 -10.288105964660645 0.976130187511444 -11.211533546447754 
105 1 7.292457103729248 11.100048065185547 -5.604863166809082 
106 1 -9.686837196350098 -1.892118215560913 -4.186827182769775 
107 1 -5.299551963806152 -4.781852722167969 10.109143257141113 
108 1 -1.640072107315063 6.288458347320557 -4.416387081146240 
109 1 -10.469349861145020 8.134439468383789 -8.070397377014160 
110 1 -1.229177951812744 6.407161235809326 10.688486099243164 
111 1 -1.713860273361206 7.794235706329346 -9.429528236389160 
112 1 7.528006553649902 -7.523002624511719 3.949862718582153 
113 1 11.197430610656738 0.561116337776184 -4.771675109863281 
114 1 11.312423706054688 8.914855957031250 -4.422276973724365 
115 1 6.772015571594238 3.556315422058105 -3.226893186569214 
116 1 -7.930349349975586 -7.680256843566895 4.242811679840088 
117 1 -2.340775728225708 -3.643747329711914 7.773458003997803 
118 1 -3.036824941635132 8.926948547363281 6.425014495849609 
119 1 3.608309984207153 -7.060853958129883 -11.575162887573242 
120 1 11.213996887207031 9.688603401184082 8.632459640502930 
121 1 9.845913887023926 4.099606990814209 -5.722814559936523 
122 1 -6.613325595855713 11.303220748901367 -3.945008993148804 
123 1 11.557592391967773 4.050650119781494 8.885508537292480 
124 1 7.482256889343262 -11.404221534729004 8.667860031127930 
125 1 -7.189162731170654 0.581566572189331 11.081097602844238 
126 1 -9.771389007568359 1.430516362190247 3.017208337783813 
127 1 -10.738242149353027 2.788037300109863 -7.708383560180664 
128 1 -2.911360979080200 0.194197863340378 7.710762500762939 
129 1 2.274816751480103 -6.514273643493652 7.036311626434326 
130 1 -3.994333744049072 -4.296232223510742 -7.646008968353271 
131 1 -3.623400449752808 6.372722148895264 -1.440899252891541 
132 1 4.877599239349365 -7.743676662445068 1.304643511772156 
133 1 -5.443459987640381 7.539859294891357 -9.723330497741699 
134 1 -8.022203445434570 0.394177645444870 -8.484955787658691 
135 1 7.286441326141357 9.510364532470703 -8.986746788024902 
136 1 -8.330944061279297 -8.769296646118164 8.954850196838379 
137 1 -1.587451577186584 -3.994809627532959 -3.725145816802979 
138 1 -7.238760471343994 -0.833595335483551 1.513460516929626 
139 1 -5.126918315887451 -10.720944404602051 8.314185142517090 
140 1 -4.379119873046875 3.811245441436768 -3.749251365661621 
141 1 8.521015167236328 -9.081091880798340 -10.598284721374512 
142 1 1.624771952629089 8.364478111267090 1.249361872673035 
143 1 0.256157517433167 1.923463463783264 3.916986942291260 
144 1 8.755813598632812 11.013971328735352 -2.378154516220093 
145 1 7.329264163970947 -9.139304161071777 -0.877048432826996 
146 1 -11.429341316223145 -2.620861053466797 -11.075820922851562 
147 1 -1.816849112510681 1.198022603988647 11.031930923461914 
148 1 5.691968917846680 0.909568190574646 -0.568068623542786 
149 1 -4.897689819335938 -4.906839370727539 -2.434428930282593 
150 1 6.487754344940186 -2.428657531738281 -1.472307324409485 
151 1 9.556451797485352 10.928266525268555 -11.517264366149902 
152 1 0.969126760959625 -2.998481512069702 -1.082580566406250 
153 1 -1.215294599533081 -2.678085803985596 1.924075007438660 
154 1 5.143270969390869 6.929682731628418 -6.882765293121338 
155 1 9.333379745483398 -1.691365480422974 0.811159372329712 
156 1 -6.393701553344727 2.857358217239380 1.648897647857666 
157 1 5.940834522247314 1.894180536270142 7.351918697357178 
158 1 9.963590621948242 -0.141143471002579 10.068839073181152 
159 1 -7.534444808959961 6.015305519104004 1.975073575973511 
160 1 -3.591214895248413 3.975199222564697 9.127458572387695 
161 1 -6.636934757232666 0.613424479961395 4.869455337524414 
162 1 -3.552055597305298 9.381991386413574 9.893351554870605 
163 1 11.569889068603516 -7.336172580718994 -9.219688415527344 
164 1 -2.335416316986084 -4.798019409179688 -11.020998954772949 
165 1 7.708500862121582 4.027854442596436 0.191858470439911 
166 1 -7.642724990844727 10.698490142822266 -7.063114166259766 
167 1 -5.615907669067383 -8.514480590820312 -3.044204950332642 
168 1 8.193738937377930 -2.442377805709839 -10.297754287719727 
169 1 1.178205370903015 -8.895060539245605 -6.826490402221680 
170 1 -0.257863461971283 9.740983963012695 -2.638217210769653 
171 1 6.978022575378418 -5.844554901123047 8.969689369201660 
172 1 -8.627752304077148 7.427390098571777 -5.511401176452637 
173 1 3.408845901489258 -2.293545722961426 -3.359199047088623 
174 1 2.997558832168579 -5.766491413116455 3.669971466064453 
175 1 -11.293787002563477 -9.378612518310547 6.998880863189697 
176 1 -4.981658458709717 6.356462955474854 -6.225132465362549 
177 1 8.954093933105469 -4.952867031097412 1.823270559310913 
178 1 4.940422058105469 4.013135433197021 4.406688213348389 
179 1 6.137886524200439 -10.212767601013184 -7.952834606170654 
180 1 -11.036951065063477 4.655560970306396 -11.193669319152832 
181 1 -10.977150917053223 -1.885359287261963 -7.749153614044189 
182 1 2.360791921615601 -9.873910903930664 0.209996998310089 
183 1 3.992773532867432 8.131977081298828 8.075004577636719 
184 1 -3.784998655319214 -8.283377647399902 -10.296557426452637 
185 1 -7.296231269836426 -6.977454185485840 -11.004407882690430 
186 1 0.327802091836929 1.639500975608826 -4.425160408020020 
187 1 -5.395322322845459 -1.901295900344849 -9.962272644042969 
188 1 9.407239913940430 8.235123634338379 0.259615480899811 
189 1 9.536638259887695 6.194775581359863 -8.909110069274902 
190 1 2.460842609405518 -10.623497009277344 10.195331573486328 
191 1 -6.566876888275146 4.376955986022949 11.180224418640137 
192 1 10.476935386657715 10.602024078369141 -7.267128944396973 
193 1 -0.301766693592072 11.454000473022461 1.997392058372498 
194 1 2.315940618515015 7.089630126953125 -11.157963752746582 
195 1 -8.983588218688965 -8.355166435241699 -4.392432212829590 
196 1 5.710067272186279 -4.544856071472168 5.568261146545410 
197 1 -8.497620582580566 -4.842737197875977 -3.419476032257080 
198 1 7.555759429931641 2.031464815139771 -7.996825695037842 
199 1 8.876716613769531 -1.261161684989929 -6.674675464630127 
200 1 10.769464492797852 -4.009059906005859 -1.284923076629639 
201 1 -9.643573760986328 -10.990856170654297 4.417391777038574 
202 1 3.899355649948120 -3.798817396163940 -9.824298858642578 
203 1 8.355114936828613 3.002574682235718 3.699321746826172 
204 1 -8.461444854736328 -7.062911987304688 -0.341837972402573 
205 1 -6.843695163726807 2.677989721298218 8.021408081054688 
206 1 10.323632240295410 5.812115192413330 2.106823921203613 
207 1 -6.498643398284912 -6.470174312591553 -7.412503719329834 
208 1 -2.188172101974487 -10.443435668945312 -8.072534561157227 
209 1 -0.036614585667849 -8.244418144226074 2.584955215454102 
210 1 5.325547695159912 -0.478362798690796 -5.928108215332031 
211 1 5.853722572326660 7.897774696350098 11.304843902587891 
212 1 -4.088684082031250 -1.116871953010559 3.185687780380249 
213 1 2.682079553604126 5.950062751770020 5.981190204620361 
214 1 6.194230079650879 -10.357096672058105 5.455085277557373 
215 1 -1.507044076919556 11.004342079162598 -11.118771553039551 
216 1 6.390783309936523 9.288936614990234 1.826918244361877 
217 1 -2.369434833526611 -1.060406804084778 -7.850791931152344 
218 1 4.930377483367920 3.240990877151489 -6.294115543365479 
219 1 7.098216056823730 -6.185877323150635 -6.655746936798096 
220 1 -6.368972778320312 -1.099405407905579 7.986079216003418 
221 1 -0.921232402324677 8.271090507507324 3.663178443908691 
222 1 -2.101548194885254 -7.209886074066162 6.782942771911621 
223 2 -5.242584228515625 -1.457201004028320 1.349270343780518 
224 2 -9.109177589416504 8.467179298400879 -1.398378729820251 
225 2 10.427690505981445 9.586701393127441 4.638373851776123 
226 2 6.422062397003174 2.659207344055176 -0.347701549530029 
227 2 -4.375575542449951 -8.329756736755371 1.265283226966858 
228 2 9.177982330322266 -2.800796508789062 -5.400328636169434 
229 2 9.211452484130859 -8.854108810424805 -5.221595764160156 
230 2 -8.110471725463867 7.673640251159668 1.002323031425476 
231 2 -6.129221439361572 9.546376228332520 -3.194136857986450 
232 2 11.047058105468750 11.051853179931641 10.137997627258301 
233 2 -5.819889545440674 2.759791374206543 -0.558638274669647 
234 2 6.611797332763672 -10.768414497375488 3.639266490936279 
235 2 7.232225418090820 -4.357634544372559 -2.225597858428955 
236 2 10.659773826599121 -5.942444801330566 -1.286234617233276 
237 2 9.143167495727539 10.083086967468262 -8.566848754882812 
238 2 -4.973924636840820 -10.193191528320312 -10.900467872619629 
239 2 10.985882759094238 -3.584695816040039 -7.267941951751709 
240 2 -3.505327701568604 8.004603385925293 -9.937250137329102 
241 2 7.348659038543701 7.743054389953613 9.949833869934082 
242 2 6.138458728790283 3.489127874374390 -8.042746543884277 
243 2 -9.496323585510254 -11.316311836242676 -9.678332328796387 
244 2 -2.771443128585815 8.526134490966797 4.428874969482422 
245 2 -1.134628415107727 9.515734672546387 -9.992621421813965 
246 2 4.418201923370361 -10.600254058837891 -6.997089862823486 
247 2 6.320197582244873 -5.999782085418701 -8.529501914978027 
248 2 9.342523574829102 10.029589653015137 -0.659389853477478 
249 2 -6.273700714111328 -8.994851112365723 8.124990463256836 
250 2 -6.933636665344238 -10.889900207519531 -7.958931446075439 
251 2 -3.915615320205688 10.242439270019531 -1.081703424453735 
252 2 -11.342095375061035 -10.062035560607910 11.478260993957520 
253 2 2.164113521575928 4.141575336456299 8.344906806945801 
254 2 -9.277534484863281 1.806566834449768 -8.394732475280762 
255 2 -11.539270401000977 7.426248550415039 -3.297983407974243 
256 2 -6.832782745361328 10.600544929504395 1.891393899917603 
257 2 10.909677505493164 0.667782962322235 -0.615113735198975 
258 2 10.432714462280273 2.594131946563721 -4.446947574615479 
259 2 -11.551959991455078 8.542192459106445 7.248641967773438 
260 2 11.202566146850586 10.818766593933105 -10.458769798278809 
261 2 4.609626293182373 -3.628147363662720 -8.001651763916016 
262 2 4.693451881408691 5.191621303558350 2.854151487350464 
263 2 -0.512634634971619 -8.636266708374023 -2.133274078369141 
264 2 -4.065121650695801 -5.051850795745850 11.538377761840820 
265 2 -3.706456899642944 0.862526178359985 -0.045123133808374 
266 2 -3.633723735809326 -3.639857053756714 6.459169864654541 
267 2 -2.460641145706177 -10.564352035522461 -2.726676225662231 
268 2 -4.357323646545410 8.131457328796387 -5.205893516540527 
269 2 9.325101852416992 7.305426597595215 -1.386092185974121 
270 2 -9.692722320556641 10.642953872680664 11.299063682556152 
271 2 -7.825864315032959 -8.853517532348633 -10.220922470092773 
272 2 3.407877683639526 -4.731142520904541 -11.566222190856934 
273 2 -8.759167671203613 -6.012254238128662 -1.886857748031616 
274 2 10.209626197814941 -3.193376064300537 -10.099327087402344 
275 2 -9.018500328063965 -0.154680207371712 2.069853544235229 
276 2 5.446871280670166 -0.998939573764801 -0.704424798488617 
277 2 7.843053340911865 4.529972076416016 -1.765934586524963 
278 2 -3.415460109710693 -0.099720902740955 -6.067803859710693 
279 2 7.340852737426758 8.469726562500000 0.175118297338486 
280 2 -4.681542396545410 -11.029631614685059 1.535025954246521 
281 2 2.514602184295654 -9.627120971679688 -1.644441843032837 
282 2 -10.322181701660156 -3.814008951187134 -3.779484510421753 
283 2 -9.762087821960449 -8.256227493286133 7.564806461334229 
284 2 -8.399511337280273 1.173405766487122 4.333734989166260 
285 2 9.051410675048828 2.234904527664185 -9.674778938293457 
286 2 7.948765754699707 -2.853434085845947 11.231500625610352 
287 2 -2.242194890975952 -1.568248033523560 3.704213142395020 
288 2 9.293561935424805 2.676456451416016 -0.252642303705215 
289 2 -6.702228069305420 6.350475311279297 10.913603782653809 
290 2 -7.606339931488037 9.149226188659668 6.218088150024414 
291 2 11.227553367614746 7.147385597229004 -8.587380409240723 
292 2 2.049190044403076 6.077568531036377 -1.480035066604614 
293 2 -8.030409812927246 -3.416408538818359 -4.829988002777100 
294 2 -3.277248382568359 0.629231572151184 2.499201536178589 
295 2 -10.383308410644531 -6.126675128936768 -8.447192192077637 
296 2 -4.230327606201172 6.226807594299316 5.566554069519043 
297 2 3.549783468246460 -5.841245651245117 -9.264112472534180 
298 2 -1.030661463737488 11.283468246459961 -7.510609626770020 
299 2 -8.762923240661621 -10.253031730651855 -4.243561267852783 
300 2 -2.002231121063232 7.268862724304199 6.567934513092041 
301 2 1.411609530448914 -11.057771682739258 -6.376869678497314 
302 2 -8.311265945434570 1.839679002761841 -3.767066001892090 
303 2 -7.359260082244873 -5.998170375823975 -9.270718574523926 
304 2 -6.810990333557129 -3.677410840988159 9.493159294128418 
305 2 -2.016856908798218 0.910246849060059 -8.105277061462402 
306 2 -2.037270545959473 -9.682117462158203 0.155627727508545 
307 2 -2.486033678054810 3.846925497055054 3.428717374801636 
308 2 2.674099445343018 -0.390576064586639 1.552755236625671 
309 2 2.061846971511841 -3.819786071777344 -2.672019481658936 
310 2 -9.273617744445801 -3.942840814590454 7.119029998779297 
311 2 7.549492359161377 -11.488399505615234 6.324578762054443 
312 2 -5.164139270782471 -2.350284099578857 -5.907418251037598 
313 2 5.892468452453613 7.974482059478760 7.202341079711914 
314 2 1.354200005531311 -6.159130573272705 -4.284068584442139 
315 2 4.091666698455811 3.958018302917480 -9.885583877563477 
316 2 0.162047222256660 8.655681610107422 5.183557510375977 
317 2 1.079873561859131 -10.948284149169922 1.090615630149841 
318 2 -8.141806602478027 -3.484259366989136 -7.816466331481934 
319 2 6.014818668365479 -10.756278038024902 9.770412445068359 
320 2 -11.120646476745605 -11.097967147827148 0.917002201080322 
321 2 -3.342049121856689 -4.643210887908936 -3.483684062957764 
322 2 1.659626603126526 7.420484542846680 -5.435575485229492 
323 2 -8.573893547058105 1.982345700263977 7.817345619201660 
324 2 10.221104621887207 -8.702850341796875 -9.354189872741699 
325 2 -4.367013454437256 -10.210427284240723 6.482997417449951 
326 2 11.255800247192383 -0.939868211746216 -9.194124221801758 
327 2 -10.718704223632812 -4.035891056060791 -0.848073244094849 
328 2 -2.054697513580322 3.028188228607178 0.383317768573761 
329 2 8.439392089843750 11.505919456481934 10.297949790954590 
330 2 7.247336387634277 10.080245971679688 8.386560440063477 
331 2 9.933494567871094 6.779741287231445 5.688083171844482 
332 2 -7.077525138854980 -3.890741348266602 4.375613689422607 
333 2 -2.359293937683105 -7.572186470031738 -6.840049266815186 
334 2 -6.523982048034668 1.661095857620239 -8.893896102905273 
335 2 3.050631284713745 6.139107227325439 -3.731402635574341 
336 2 5.913858890533447 -3.666243553161621 -0.054297473281622 
337 2 7.822468757629395 -10.941917419433594 -1.354131817817688 
338 2 -1.398131251335144 -5.808597564697266 10.910243988037109 
339 2 -9.609240531921387 0.743295907974243 -1.070464611053467 
340 2 -9.056866645812988 -6.324052810668945 -4.501828193664551 
341 2 7.292780399322510 9.801792144775391 -2.585453987121582 
342 2 7.850296497344971 3.510561704635620 10.450325012207031 
343 2 -11.105416297912598 5.298775196075439 5.324602603912354 
344 2 8.354096412658691 7.716500759124756 -8.137770652770996 
345 2 -5.007197856903076 4.750828742980957 -7.369031906127930 
346 2 -11.174452781677246 2.997415065765381 -1.147392988204956 
347 2 4.994964122772217 -2.699382781982422 5.416702747344971 
348 2 10.464536666870117 4.851778507232666 -2.467496871948242 
349 2 4.673112869262695 7.909372806549072 9.806222915649414 
350 2 9.517824172973633 -10.972263336181641 1.102338790893555 
351 2 -5.076659202575684 -7.564040660858154 -6.215186595916748 
352 2 4.971867561340332 3.037813663482666 10.871467590332031 
353 2 -6.070203304290771 -11.250251770019531 4.295007228851318 
354 2 1.042057871818542 -5.058711051940918 6.325881004333496 
355 2 3.601437330245972 -10.636230468750000 8.609373092651367 
356 2 2.347955703735352 -5.903177261352539 1.834634780883789 
357 2 3.389677286148071 -2.580562829971313 10.221590995788574 
358 2 1.943156242370605 -1.903847098350525 -4.477525711059570 
359 2 -4.292323589324951 -8.940729141235352 -1.746010541915894 
360 2 9.869916915893555 2.163493871688843 2.968281030654907 
361 2 -11.558934211730957 -5.946914196014404 7.062297344207764 
362 2 3.287109136581421 -11.619780540466309 -0.199747666716576 
363 2 8.754970550537109 -2.420783758163452 -8.246811866760254 
364 2 -8.745136260986328 -3.652772665023804 -10.838542938232422 
365 2 -9.337933540344238 6.797138690948486 6.761206626892090 
366 2 -4.527039051055908 11.176383972167969 -3.955440044403076 
367 2 -7.717663288116455 4.484170436859131 -10.666872978210449 
368 2 -0.944301664829254 -5.494385719299316 -2.227463483810425 
369 2 0.277131050825119 -7.668529510498047 -9.537505149841309 
370 2 -2.320537567138672 8.769009590148926 -7.612329959869385 
371 2 -8.337846755981445 -6.037697315216064 -6.911434650421143 
372 2 -4.045998573303223 -7.703624725341797 4.006603240966797 
373 2 -2.520754575729370 -1.784800052642822 8.409250259399414 
374 2 11.226114273071289 5.200942993164062 -4.879680633544922 
375 2 -1.803179264068604 -3.191235542297363 10.966241836547852 
376 2 -0.288007706403732 -6.423541545867920 0.497539401054382 
377 2 4.515054702758789 -2.237490177154541 -5.422511100769043 
378 2 10.148288726806641 -3.821945905685425 -3.093820333480835 
379 2 6.911460876464844 -9.955184936523438 -11.198824882507324 
380 2 -11.533850669860840 -8.191205024719238 5.529284000396729 
381 2 -6.757306575775146 4.528106689453125 3.045109987258911 
382 2 10.495855331420898 9.692091941833496 1.582098126411438 
383 2 -5.734712123870850 -0.147724866867065 -1.645239710807800 
384 2 -0.405198484659195 -8.247138023376465 10.828373908996582 
385 2 -9.903369903564453 8.672771453857422 -9.917780876159668 
386 2 -7.350133419036865 4.386780261993408 -3.084354162216187 
387 2 -5.222878456115723 2.933629989624023 8.848563194274902 
388 2 7.093726158142090 6.925470352172852 -2.735715150833130 
389 2 -7.980209827423096 7.892329692840576 -3.766242027282715 
390 2 4.114152908325195 10.080674171447754 7.686254978179932 
391 2 -11.301078796386719 -0.551766097545624 9.065177917480469 
392 2 1.884348392486572 5.408305644989014 -7.066356658935547 
393 2 -7.536190509796143 -1.211878418922424 -6.193562984466553 
394 2 4.736180782318115 -0.046251770108938 3.866046905517578 
395 2 -0.965970218181610 5.347897052764893 1.599740386009216 
396 2 10.860755920410156 -1.929982781410217 4.166718482971191 
397 2 -6.621955871582031 3.420059680938721 -5.637482643127441 
398 2 -1.057577729225159 -0.983523428440094 -6.482096195220947 
399 2 -3.662120819091797 -9.716862678527832 9.060413360595703 
400 2 -0.501787364482880 6.951187610626221 -8.075673103332520 
401 2 9.785737037658691 -4.540709972381592 3.718985080718994 
402 2 -10.991617202758789 -4.534162998199463 4.912777423858643 
403 2 -6.563498497009277 -5.072221755981445 -3.308315277099609 
404 2 3.609938621520996 -3.210997581481934 1.733014941215515 
405 2 -8.213148117065430 -4.988197803497314 0.577636241912842 
406 2 2.961512088775635 0.636402249336243 6.308755874633789 
407 2 5.594466209411621 -0.040844116359949 6.569360733032227 
408 2 -10.198027610778809 -6.638809680938721 0.604526698589325 
409 2 5.145183563232422 -5.804543495178223 1.151782989501953 
410 2 5.638224124908447 -4.260299205780029 -10.577309608459473 
411 2 0.886301219463348 -2.402102231979370 0.895350635051727 
412 2 -0.912093997001648 -10.106760025024414 2.600089788436890 
413 2 -4.984351634979248 7.625035285949707 -7.774381160736084 
414 2 -7.657724380493164 -1.517608761787415 -0.286742508411407 
415 2 3.817076921463013 -5.305173873901367 5.854751110076904 
416 2 9.402845382690430 -1.761541008949280 6.220107078552246 
417 2 8.326378822326660 -4.246912956237793 8.942498207092285 
418 2 -6.254388332366943 -10.831169128417969 -5.511961460113525 
419 2 -1.138788461685181 -0.737583220005035 10.759556770324707 
420 2 3.490642786026001 7.695244312286377 -7.766459941864014 
421 2 -10.597309112548828 0.632631421089172 6.634041786193848 
422 2 9.293852806091309 7.256699562072754 -4.317506313323975 
423 2 -1.780697584152222 4.596390247344971 6.189553260803223 
424 2 4.147844791412354 -9.662049293518066 1.160758614540100 
425 2 -0.204898029565811 -10.961618423461914 5.798800468444824 
426 2 -6.574508190155029 -0.586265683174133 3.334907054901123 
427 2 8.017709732055664 -2.071831226348877 -0.423849970102310 
428 2 -2.823083639144897 -1.675801992416382 -1.113361835479736 
429 2 3.933320283889771 2.719398260116577 -4.663123130798340 
430 2 1.839028120040894 -10.043784141540527 -8.586277961730957 
431 2 -5.278920173645020 8.604770660400391 9.978527069091797 
432 2 -11.112320899963379 -9.967113494873047 3.529057502746582 
433 2 -10.380702018737793 8.100838661193848 4.895085811614990 
434 2 6.127718925476074 -5.266708374023438 7.336911678314209 
435 2 -1.692942380905151 -6.238107204437256 5.124605178833008 
436 2 9.893733024597168 0.402403086423874 -2.950299024581909 
437 2 -11.072800636291504 -3.746095895767212 2.014396905899048 
438 2 -4.696184158325195 10.607914924621582 -8.404519081115723 
439 2 -3.361339092254639 -10.363361358642578 3.955192804336548 
440 2 -1.887499928474426 1.919840812683105 4.996517658233643 
441 2 -6.771890163421631 -10.875433921813965 0.001256734598428 
442 2 1.417441606521606 8.285923004150391 11.064101219177246 
443 2 -0.557334959506989 -9.458719253540039 -7.533684730529785 
444 2 -6.795707702636719 4.641231536865234 0.649980843067169 
445 2 -7.377668380737305 1.236197590827942 -6.661915779113770 
446 2 7.370611190795898 1.428562045097351 3.888298273086548 
447 2 -6.781676769256592 0.676861703395844 9.086225509643555 
448 2 0.259000808000565 3.809488534927368 3.747764110565186 
449 2 9.355288505554199 5.824326038360596 -6.880124568939209 
450 2 11.557482719421387 -6.553656101226807 3.611301422119141 
451 2 0.704558730125427 2.373569488525391 5.884477615356445 
452 2 2.691430330276489 -1.518445491790771 4.340773105621338 
453 2 2.565901994705200 -1.761168599128723 -1.468997836112976 
454 2 -4.452787876129150 3.165357351303101 1.923679471015930 
455 2 10.212655067443848 0.724571883678436 5.775146007537842 
456 2 -6.379520416259766 11.348853111267090 7.170979022979736 
457 2 4.055570125579834 8.052890777587891 -10.725606918334961 
458 2 -3.112506866455078 0.336383491754532 9.684219360351562 
459 2 5.951327323913574 5.189405441284180 9.277370452880859 
460 2 -1.986921787261963 -5.480591773986816 7.614117622375488 
461 2 6.885612964630127 8.357627868652344 -10.448315620422363 
462 2 11.405116081237793 5.845136642456055 7.979509353637695 
463 2 -1.116931200027466 6.306314468383789 4.119345188140869 
464 2 0.510816991329193 -1.401034832000732 6.602084636688232 
465 2 5.481383800506592 2.046709060668945 -2.630429744720459 
466 2 9.780036926269531 -4.548427104949951 6.308377742767334 
467 2 -4.684342861175537 4.392718315124512 10.864916801452637 
468 2 9.626927375793457 -10.682679176330566 -10.679752349853516 
469 2 -8.801830291748047 -9.283439636230469 4.962522029876709 
470 2 -8.885698318481445 -8.987035751342773 0.138717949390411 
471 2 2.585892438888550 -7.186904907226562 5.085187911987305 
472 2 -0.413053959608078 0.848522543907166 -10.392535209655762 
473 2 6.710948944091797 -7.457216262817383 -5.252967834472656 
474 2 -2.471622467041016 -6.661348819732666 -9.847929000854492 
475 2 -1.024010658264160 9.977791786193848 -0.896822512149811 