ITEM: TIMESTEP
0
ITEM: NUMBER OF ATOMS
1008
ITEM: BOX BOUNDS xy xz yz pp pp pp
0.0 23.3006801605 0.0
0.0 23.3006801605 0.0
0.0 23.3006801605 0.0
ITEM: ATOMS id type x y z
1 1 3.769708156585693 -6.837284564971924 -7.680290222167969 
2 1 0.087421521544456 6.238649368286133 -1.371315360069275 
3 1 -10.968965530395508 5.591352462768555 -3.306029558181763 
4 1 -1.353457450866699 3.171494245529175 -1.402637839317322 
5 1 5.836185455322266 -11.601972579956055 -11.446899414062500 
6 1 0.075668223202229 -2.443516254425049 10.359562873840332 
7 1 8.092624664306641 0.219439700245857 -3.335062265396118 
8 1 -4.077593803405762 -1.198930621147156 -4.696900367736816 
9 1 -9.717328071594238 10.342125892639160 -1.619298100471497 
10 1 5.284551143646240 -0.247454404830933 -9.543313980102539 
11 1 9.664263725280762 2.086679697036743 6.995095729827881 
12 1 9.064882278442383 -2.770552873611450 4.442529201507568 
13 1 0.856946408748627 3.385882854461670 9.706279754638672 
14 1 -6.775632858276367 4.516480922698975 -1.295048594474792 
15 1 -5.341436862945557 -3.845855951309204 5.449800968170166 
16 1 2.996750354766846 -8.990210533142090 4.409835815429688 
17 1 -10.328091621398926 3.581324815750122 5.772460460662842 
18 1 -9.537659645080566 2.281274080276489 -2.338701725006104 
19 1 -0.698129892349243 -1.424446344375610 5.066108703613281 
20 1 -10.234745979309082 -2.666745901107788 8.241821289062500 
21 1 10.855417251586914 -5.637181282043457 5.208911895751953 
22 1 0.012976801954210 -7.220984458923340 -3.381092309951782 
23 1 -5.779835224151611 -7.129903793334961 7.336486339569092 
24 1 7.708649158477783 4.569972515106201 9.137794494628906 
25 1 7.260668277740479 -2.688698530197144 9.252114295959473 
26 1 -5.590116500854492 6.766657829284668 7.023879528045654 
27 1 8.135543823242188 -10.811871528625488 2.398979187011719 
28 1 0.458913952112198 10.311690330505371 6.121593952178955 
29 1 -3.035654067993164 -10.956570625305176 -4.527573585510254 
30 1 -6.060163021087646 2.928067922592163 -7.526424407958984 
31 1 -1.405821084976196 5.136026859283447 -7.482347488403320 
32 1 -11.520127296447754 6.799630165100098 6.378037929534912 
33 1 4.582768440246582 6.154494762420654 1.229564070701599 
34 1 2.113021612167358 3.497227191925049 0.017007170245051 
35 1 0.491719782352448 -1.626223921775818 -5.453930854797363 
36 1 -10.608132362365723 -11.356794357299805 10.175667762756348 
37 1 11.559249877929688 -0.640111804008484 5.468113899230957 
38 1 -4.756599426269531 1.457088351249695 -1.386143803596497 
39 1 4.768376827239990 -3.870170593261719 -6.011900901794434 
40 1 -7.252295017242432 -4.504585742950439 2.399114131927490 
41 1 -3.390458822250366 -7.097467422485352 -5.148140430450439 
42 1 3.043468236923218 -10.224564552307129 -9.900965690612793 
43 1 -8.530515670776367 5.323951721191406 -9.084591865539551 
44 1 -2.303356647491455 -8.939656257629395 -1.673547029495239 
45 1 -8.405820846557617 10.675225257873535 7.689953804016113 
46 1 0.701778471469879 9.165170669555664 9.640713691711426 
47 1 7.317481517791748 -9.008080482482910 -4.418679237365723 
48 1 4.869615077972412 -8.938397407531738 8.838615417480469 
49 1 3.536630868911743 11.531785964965820 -5.798562049865723 
50 1 -10.716836929321289 -5.645470142364502 2.158334016799927 
51 1 -5.884337902069092 10.980586051940918 5.280384540557861 
52 1 -11.025613784790039 -0.497219353914261 -0.981651961803436 
53 1 -2.004188299179077 1.063544392585754 1.059610366821289 
54 1 -1.510499358177185 -0.693555116653442 -2.115640878677368 
55 1 3.649212360382080 -4.185957908630371 9.954992294311523 
56 1 2.937810182571411 8.303414344787598 -4.215855121612549 
57 1 6.799239158630371 -5.788181781768799 -10.532178878784180 
58 1 3.776448011398315 5.542325973510742 -1.926720261573792 
59 1 3.822506427764893 9.405589103698730 -8.942687988281250 
60 1 0.520878732204437 5.469653606414795 2.869296312332153 
61 1 2.453207731246948 0.966763556003571 -7.251410961151123 
62 1 8.532581329345703 7.641150951385498 -6.017541408538818 
63 1 -1.816941142082214 -5.522723674774170 -0.259803891181946 
64 1 -5.094089984893799 -6.558616161346436 0.826750099658966 
65 1 8.824719429016113 6.197423934936523 -2.696801424026489 
66 1 0.306602507829666 -3.474395751953125 -8.767339706420898 
67 1 5.434885025024414 -3.737981557846069 1.812938213348389 
68 1 9.273118019104004 7.219774723052979 11.307785987854004 
69 1 -11.515642166137695 -9.649918556213379 -2.358996629714966 
70 1 -6.824724674224854 -3.002173900604248 -6.504539489746094 
71 1 -1.060357332229614 9.609484672546387 -6.094893932342529 
72 1 3.786628007888794 1.165913224220276 2.543691396713257 
73 1 -7.455957889556885 0.479233294725418 -5.049296855926514 
74 1 -3.506243228912354 4.579847335815430 -10.280021667480469 
75 1 -10.564952850341797 -6.103535175323486 10.884902000427246 
76 1 3.612902641296387 10.632122039794922 3.697945117950439 
77 1 3.250614404678345 10.198909759521484 -1.526193380355835 
78 1 10.774891853332520 11.255003929138184 0.207438036799431 
79 1 3.962749004364014 -9.691786766052246 -2.913874387741089 
80 1 10.085659980773926 0.607029676437378 -9.817337036132812 
81 1 -9.818125724792480 0.681833803653717 8.369559288024902 
82 1 1.721043944358826 -6.389860630035400 0.097917079925537 
83 1 -2.603109836578369 9.530591011047363 0.256017208099365 
84 1 1.924302101135254 -0.660795271396637 -10.326184272766113 
85 1 -7.747985839843750 -3.167831659317017 10.856714248657227 
86 1 -8.434335708618164 9.539133071899414 1.798166751861572 
87 1 7.691679000854492 8.222681999206543 8.152685165405273 
88 1 -2.751649856567383 1.760134935379028 -6.533789634704590 
89 1 -2.889838218688965 5.373189449310303 4.761598587036133 
90 1 9.563556671142578 -4.267742633819580 -8.436614990234375 
91 1 3.380789518356323 -11.620318412780762 6.959027767181396 
92 1 3.632253170013428 1.747388601303101 -3.072260379791260 
93 1 -7.172344684600830 8.071080207824707 10.186655044555664 
94 1 -8.630990028381348 7.803188323974609 5.106140613555908 
95 1 -9.065790176391602 10.156631469726562 -10.395556449890137 
96 1 5.695061683654785 4.851219177246094 -9.800938606262207 
97 1 -2.163619995117188 -9.566661834716797 9.616054534912109 
98 1 10.529778480529785 -7.389426708221436 -0.052968725562096 
99 1 0.203765928745270 -7.240729331970215 9.921211242675781 
100 1 -7.085264682769775 8.152644157409668 -2.067448616027832 
101 1 4.141194343566895 -0.988004207611084 5.592677116394043 
102 1 6.950916290283203 1.543786287307739 11.094844818115234 
103 1 0.545352756977081 -9.817474365234375 7.163709163665771 
104 1 -10.155079841613770 0.628677308559418 -11.416354179382324 
105 1 7.231564521789551 11.252346038818359 -5.655822277069092 
106 1 -9.627193450927734 -1.790622830390930 -4.276085376739502 
107 1 -5.136062622070312 -4.960653305053711 10.200842857360840 
108 1 -1.628388643264771 6.226003646850586 -4.400512218475342 
109 1 -10.617362976074219 8.042434692382812 -8.120044708251953 
110 1 -1.292609453201294 6.410713195800781 10.736198425292969 
111 1 -1.840195298194885 7.805746078491211 -9.296622276306152 
112 1 7.562839984893799 -7.543236732482910 3.939291715621948 
113 1 11.186121940612793 0.646171450614929 -4.671083450317383 
114 1 11.388200759887695 9.067760467529297 -4.459393978118896 
115 1 6.787228584289551 3.652399539947510 -3.157808542251587 
116 1 -7.912814617156982 -7.605595111846924 4.167249202728271 
117 1 -2.257925510406494 -3.740734338760376 7.641631603240967 
118 1 -2.927838802337646 9.067959785461426 6.497548103332520 
119 1 3.475246667861938 -6.978915214538574 -11.530181884765625 
120 1 11.119574546813965 9.565423965454102 8.716054916381836 
121 1 9.820756912231445 4.101494312286377 -5.494472980499268 
122 1 -6.579229354858398 11.380099296569824 -4.048954486846924 
123 1 -11.619812965393066 3.966542243957520 8.942804336547852 
124 1 7.502054214477539 -11.457407951354980 8.732165336608887 
125 1 -7.016919136047363 0.502297520637512 11.023112297058105 
126 1 -9.784327507019043 1.458966851234436 3.005016565322876 
127 1 -10.762299537658691 2.699728965759277 -7.641287326812744 
128 1 -3.080452442169189 0.100591622292995 7.519164085388184 
129 1 2.674145460128784 -6.222266674041748 7.083095550537109 
130 1 -3.866015434265137 -4.528297424316406 -7.825690269470215 
131 1 -3.654782295227051 6.401642322540283 -1.471047878265381 
132 1 4.857883453369141 -7.686374187469482 1.325962305068970 
133 1 -5.577675342559814 7.577227592468262 -9.605310440063477 
134 1 -7.921273231506348 0.266950517892838 -8.570583343505859 
135 1 7.308765888214111 9.553592681884766 -8.900263786315918 
136 1 -8.282721519470215 -8.854947090148926 8.923017501831055 
137 1 -1.548784375190735 -4.033707618713379 -3.671039342880249 
138 1 -7.225162982940674 -0.773135483264923 1.470106005668640 
139 1 -5.291840076446533 -10.821368217468262 8.254195213317871 
140 1 -4.261157989501953 3.652377128601074 -3.716645240783691 
141 1 8.443802833557129 -9.076252937316895 -10.613523483276367 
142 1 1.510432243347168 8.474969863891602 1.291332125663757 
143 1 0.333705067634583 1.938447117805481 3.929878950119019 
144 1 8.736534118652344 11.034359931945801 -2.413433074951172 
145 1 7.298416614532471 -9.177753448486328 -0.826839029788971 
146 1 -11.489044189453125 -2.708124160766602 -11.082045555114746 
147 1 -1.851201295852661 1.135393857955933 10.433168411254883 
148 1 5.745265007019043 0.956065773963928 -0.570526897907257 
149 1 -4.877793788909912 -4.902420043945312 -2.454356908798218 
150 1 6.521557807922363 -2.430031061172485 -1.528303742408752 
151 1 9.536610603332520 10.861969947814941 -11.410500526428223 
152 1 0.974706292152405 -2.922404766082764 -1.025067925453186 
153 1 -1.202525615692139 -2.635479211807251 1.950493812561035 
154 1 5.177009105682373 7.044744014739990 -6.850825309753418 
155 1 9.344782829284668 -1.631162524223328 0.776508033275604 
156 1 -6.441620826721191 2.934191465377808 1.703955650329590 
157 1 5.873283863067627 1.873394846916199 7.425099372863770 
158 1 10.070091247558594 -0.381244301795959 9.851276397705078 
159 1 -7.593647480010986 6.099288940429688 2.055775642395020 
160 1 -3.699093103408813 4.363390922546387 9.327631950378418 
161 1 -6.650237083435059 0.649729132652283 4.828219413757324 
162 1 -3.666738271713257 9.322969436645508 9.930585861206055 
163 1 11.509753227233887 -7.289338588714600 -9.167613983154297 
164 1 -1.936201572418213 -4.935931205749512 -11.245787620544434 
165 1 7.659682750701904 4.148344039916992 0.283895403146744 
166 1 -7.475162029266357 10.479289054870605 -7.169267177581787 
167 1 -5.627447128295898 -8.509325027465820 -3.021024465560913 
168 1 8.077285766601562 -2.441121101379395 -10.353715896606445 
169 1 0.883353054523468 -9.042554855346680 -6.919913291931152 
170 1 -0.281230807304382 9.723072052001953 -2.557471036911011 
171 1 6.951653480529785 -5.870785236358643 9.002444267272949 
172 1 -8.481532096862793 7.321865081787109 -5.543994426727295 
173 1 3.422370672225952 -2.112810373306274 -3.231411933898926 
174 1 3.067263364791870 -5.689739704132080 3.682840108871460 
175 1 -11.266444206237793 -9.443372726440430 6.960092067718506 
176 1 -4.950713634490967 6.177032470703125 -6.191193580627441 
177 1 8.997607231140137 -4.948745250701904 1.780655026435852 
178 1 4.896286487579346 4.072376728057861 4.440219402313232 
179 1 5.987239360809326 -9.967740058898926 -7.919477939605713 
180 1 -10.852014541625977 4.278297901153564 -11.126755714416504 
181 1 -10.943957328796387 -1.900076389312744 -7.865749359130859 
182 1 2.279094457626343 -9.879395484924316 0.233986213803291 
183 1 4.001263618469238 8.191932678222656 8.080201148986816 
184 1 -3.936302900314331 -8.933319091796875 -10.484133720397949 
185 1 -7.264557838439941 -7.172795772552490 -10.975631713867188 
186 1 0.323239594697952 1.583940625190735 -4.379602909088135 
187 1 -5.205712318420410 -1.963983416557312 -10.107898712158203 
188 1 9.384227752685547 8.304403305053711 0.316015988588333 
189 1 9.936201095581055 5.411700725555420 -8.542623519897461 
190 1 2.349539279937744 -10.542964935302734 10.238517761230469 
191 1 -6.696887016296387 4.335987567901611 11.212165832519531 
192 1 10.476021766662598 10.706673622131348 -7.289000511169434 
193 1 -0.518930017948151 11.565484046936035 1.947403669357300 
194 1 2.324812173843384 7.103638648986816 -11.124637603759766 
195 1 -8.981833457946777 -8.291923522949219 -4.379372596740723 
196 1 5.850442409515381 -4.497159957885742 5.564013481140137 
197 1 -8.463156700134277 -4.771377563476562 -3.469258785247803 
198 1 7.623918056488037 2.311637163162231 -7.926106452941895 
199 1 8.940467834472656 -1.125537157058716 -6.748855590820312 
200 1 10.789481163024902 -3.953969001770020 -1.312791228294373 
201 1 -9.514136314392090 -10.990605354309082 4.369609832763672 
202 1 3.898807048797607 -3.782803773880005 -9.729734420776367 
203 1 8.351222038269043 3.064384460449219 3.740351676940918 
204 1 -8.461726188659668 -7.043431758880615 -0.411906272172928 
205 1 -6.732479095458984 2.628249406814575 8.044487953186035 
206 1 10.385418891906738 5.736528873443604 2.177961587905884 
207 1 -6.499300956726074 -6.532727241516113 -7.434140205383301 
208 1 -2.497146844863892 -10.749268531799316 -8.029520988464355 
209 1 -0.029276851564646 -8.120488166809082 2.546424627304077 
210 1 5.440881252288818 -0.261671423912048 -5.879506111145020 
211 1 5.736997127532959 8.030195236206055 11.399456024169922 
212 1 -4.081530570983887 -1.070010781288147 3.195654869079590 
213 1 2.660958766937256 6.099701881408691 5.905097484588623 
214 1 6.192774772644043 -10.341187477111816 5.498025894165039 
215 1 -1.611132502555847 10.950359344482422 -11.287283897399902 
216 1 6.664301395416260 9.126138687133789 2.004347324371338 
217 1 -2.211319208145142 -1.110056877136230 -7.964757919311523 
218 1 4.919696807861328 3.374426603317261 -6.242606163024902 
219 1 7.032466888427734 -6.292208671569824 -6.794317722320557 
220 1 -6.492823600769043 -1.200972080230713 7.861248016357422 
221 1 -1.055241227149963 8.288200378417969 3.523169994354248 
222 1 -1.971109628677368 -7.396356105804443 6.710022449493408 
223 2 -5.222597599029541 -1.413669943809509 1.357985019683838 
224 2 -9.136215209960938 8.485684394836426 -1.464645981788635 
225 2 10.322210311889648 9.579767227172852 4.699140548706055 
226 2 6.440189361572266 2.727643728256226 -0.318200021982193 
227 2 -4.397679328918457 -8.231619834899902 1.178864836692810 
228 2 9.267030715942383 -2.697795629501343 -5.443973064422607 
229 2 9.180462837219238 -8.792693138122559 -5.207530021667480 
230 2 -8.162850379943848 7.732082843780518 1.030513644218445 
231 2 -6.145802497863770 9.601795196533203 -3.302544355392456 
232 2 10.920175552368164 10.964640617370605 10.219979286193848 
233 2 -5.905066013336182 2.835557937622070 -0.559738993644714 
234 2 6.639378070831299 -10.708695411682129 3.692904472351074 
235 2 7.362129688262939 -4.262809753417969 -2.198780775070190 
236 2 10.682067871093750 -5.888271331787109 -1.324187874794006 
237 2 9.142904281616211 10.253226280212402 -8.578127861022949 
238 2 -5.176806449890137 -10.588428497314453 -10.830723762512207 
239 2 10.993240356445312 -3.543688535690308 -7.325589179992676 
240 2 -3.641906023025513 8.206872940063477 -9.736899375915527 
241 2 7.466417789459229 7.702014923095703 10.365535736083984 
242 2 6.059427261352539 3.646446466445923 -8.051241874694824 
243 2 -9.633334159851074 -11.242184638977051 -9.689521789550781 
244 2 -2.792018413543701 8.608103752136230 4.475582122802734 
245 2 -1.128174304962158 9.576169013977051 -9.870659828186035 
246 2 4.322810649871826 -10.531726837158203 -7.023354053497314 
247 2 6.403942584991455 -5.841084480285645 -8.585907936096191 
248 2 9.315589904785156 10.076643943786621 -0.653404355049133 
249 2 -6.317148208618164 -9.000331878662109 8.180566787719727 
250 2 -6.876061439514160 -11.091996192932129 -8.020652770996094 
251 2 -3.963817834854126 10.292727470397949 -1.095554947853088 
252 2 -11.454063415527344 -10.030035972595215 11.412850379943848 
253 2 2.065668821334839 4.233035564422607 8.314410209655762 
254 2 -9.362031936645508 1.587902307510376 -8.375009536743164 
255 2 -11.419281005859375 7.507929325103760 -3.515364646911621 
256 2 -6.911455154418945 10.656524658203125 1.830360293388367 
257 2 10.892016410827637 0.785286188125610 -0.636450290679932 
258 2 10.513141632080078 2.705874681472778 -4.216536521911621 
259 2 11.588853836059570 8.443382263183594 7.283164501190186 
260 2 11.231483459472656 10.918121337890625 -10.415197372436523 
261 2 4.525233745574951 -3.513540744781494 -7.870361328125000 
262 2 4.575459480285645 5.163896560668945 2.851079463958740 
263 2 -0.410678386688232 -8.517601966857910 -2.033024311065674 
264 2 -3.714596033096313 -5.267891407012939 11.501101493835449 
265 2 -3.738876581192017 0.923698246479034 0.096654094755650 
266 2 -3.708520412445068 -3.743671417236328 6.497716903686523 
267 2 -2.239447832107544 -10.495588302612305 -2.826711654663086 
268 2 -4.485600948333740 8.131314277648926 -5.268144130706787 
269 2 9.407301902770996 7.394518852233887 -1.341080784797668 
270 2 -9.818448066711426 10.733160972595215 11.318278312683105 
271 2 -7.903009891510010 -9.029127120971680 -10.212689399719238 
272 2 3.276220798492432 -4.656066417694092 -11.469452857971191 
273 2 -8.695144653320312 -5.937405109405518 -1.927977561950684 
274 2 10.200184822082520 -3.202646255493164 -10.094576835632324 
275 2 -9.011288642883301 -0.112847737967968 2.044118165969849 
276 2 5.495717048645020 -0.945942342281342 -0.839151203632355 
277 2 7.874278545379639 4.622505664825439 -1.649593949317932 
278 2 -3.243480682373047 -0.205463960766792 -6.250876426696777 
279 2 7.249792575836182 8.480085372924805 0.104888118803501 
280 2 -4.735291481018066 -10.925740242004395 1.284314393997192 
281 2 2.505818128585815 -9.566897392272949 -1.597305893898010 
282 2 -10.265928268432617 -3.708843946456909 -3.862103223800659 
283 2 -9.714945793151855 -8.351634025573730 7.558384418487549 
284 2 -8.421600341796875 1.204686164855957 4.315247058868408 
285 2 8.973367691040039 2.023025274276733 -10.530810356140137 
286 2 7.731226921081543 -2.620802402496338 11.129145622253418 
287 2 -2.221344470977783 -1.521086096763611 3.748443841934204 
288 2 9.328647613525391 2.848711729049683 -0.133156716823578 
289 2 -6.800138473510742 6.276847839355469 10.980556488037109 
290 2 -8.571581840515137 9.232617378234863 6.482420444488525 
291 2 11.238617897033691 6.810253143310547 -8.364367485046387 
292 2 2.013733863830566 6.139742374420166 -1.437617659568787 
293 2 -7.967531681060791 -3.379704713821411 -4.909821510314941 
294 2 -3.190988302230835 0.760527789592743 2.653914928436279 
295 2 -10.393346786499023 -6.086730003356934 -8.450950622558594 
296 2 -4.279442787170410 6.304184913635254 5.668575286865234 
297 2 3.627426147460938 -5.786758422851562 -9.252166748046875 
298 2 -1.071696043014526 11.193552970886230 -7.691458702087402 
299 2 -8.786265373229980 -10.195497512817383 -4.142906665802002 
300 2 -1.923572063446045 7.378528118133545 6.619756698608398 
301 2 1.326499581336975 -10.881305694580078 -6.345179080963135 
302 2 -8.246263504028320 1.874492168426514 -3.818876981735229 
303 2 -7.362112045288086 -6.144884586334229 -9.270490646362305 
304 2 -6.716039657592773 -3.991775751113892 9.503819465637207 
305 2 -1.814188361167908 0.892915308475494 -8.241656303405762 
306 2 -2.006803274154663 -9.611265182495117 0.051060702651739 
307 2 -2.581648349761963 3.864130735397339 3.490749835968018 
308 2 2.680342435836792 -0.313990384340286 1.613941431045532 
309 2 2.148903131484985 -3.707278490066528 -2.584754705429077 
310 2 -9.250885963439941 -3.993573904037476 7.072899818420410 
311 2 7.526878356933594 -11.523908615112305 6.402395725250244 
312 2 -5.022686958312988 -2.359971046447754 -6.115189552307129 
313 2 5.863479614257812 8.020107269287109 7.126944541931152 
314 2 1.397201895713806 -6.139931201934814 -4.299958705902100 
315 2 3.910261869430542 4.110287189483643 -9.824793815612793 
316 2 0.123781688511372 8.970091819763184 4.834460735321045 
317 2 0.944247364997864 -10.982496261596680 1.036096334457397 
318 2 -7.982086181640625 -3.534878492355347 -7.897121906280518 
319 2 5.978535175323486 -10.758521080017090 9.756345748901367 
320 2 -11.111231803894043 -11.071893692016602 0.873278856277466 
321 2 -3.311146020889282 -4.703443050384521 -3.496597290039062 
322 2 1.663730740547180 7.412793636322021 -5.430029392242432 
323 2 -8.486371994018555 1.938019752502441 7.788846492767334 
324 2 10.186572074890137 -8.704524993896484 -9.355687141418457 
325 2 -5.195131301879883 -10.385724067687988 6.252455711364746 
326 2 11.417921066284180 -0.891198933124542 -9.448211669921875 
327 2 -10.696956634521484 -3.951209068298340 -0.950045943260193 
328 2 -2.070401668548584 3.073594808578491 0.428546637296677 
329 2 8.390009880065918 11.408357620239258 10.375734329223633 
330 2 7.162799835205078 10.015347480773926 8.509484291076660 
331 2 9.858978271484375 6.584064960479736 5.882459640502930 
332 2 -7.077989101409912 -3.841054916381836 4.300362110137939 
333 2 -2.495548009872437 -7.735474109649658 -6.722340583801270 
334 2 -6.414167404174805 1.528052210807800 -9.058279037475586 
335 2 3.064276456832886 6.169857025146484 -3.696089267730713 
336 2 5.890797615051270 -3.638321161270142 -0.128905892372131 
337 2 7.826212882995605 -10.942663192749023 -1.355811238288879 
338 2 -0.999927580356598 -6.058146476745605 10.817287445068359 
339 2 -9.571067810058594 0.829911589622498 -1.063531637191772 
340 2 -9.078557014465332 -6.247467041015625 -4.523542881011963 
341 2 7.258287906646729 9.854902267456055 -2.586552143096924 
342 2 7.930076122283936 3.095868587493896 10.418902397155762 
343 2 -11.200802803039551 5.215090274810791 5.335852622985840 
344 2 8.209405899047852 8.030069351196289 -7.909925937652588 
345 2 -4.929315090179443 4.590173244476318 -7.405020236968994 
346 2 -11.154991149902344 3.053804636001587 -1.201703310012817 
347 2 5.018969535827637 -2.714784860610962 5.394906044006348 
348 2 10.472105026245117 4.972120761871338 -2.423221588134766 
349 2 4.974824905395508 7.819442272186279 9.674479484558105 
350 2 9.552407264709473 -10.924392700195312 1.132843852043152 
351 2 -5.164792537689209 -7.583074569702148 -6.204996109008789 
352 2 5.278859138488770 2.506872415542603 11.643140792846680 
353 2 -5.874742984771729 -11.046549797058105 3.881393432617188 
354 2 1.184428811073303 -4.860912322998047 6.347734451293945 
355 2 3.499332427978516 -10.581087112426758 8.658756256103516 
356 2 2.421753168106079 -5.860164165496826 1.830628871917725 
357 2 3.732975244522095 -2.358833551406860 10.354415893554688 
358 2 2.039073467254639 -1.807216882705688 -4.441937923431396 
359 2 -4.237841606140137 -8.959270477294922 -1.789282798767090 
360 2 9.857505798339844 2.192768096923828 2.986913204193115 
361 2 -11.539354324340820 -5.963366508483887 7.020126819610596 
362 2 3.229690551757812 -11.576233863830566 -0.105093300342560 
363 2 8.738904953002930 -2.416215896606445 -8.219758987426758 
364 2 -8.507659912109375 -3.755979537963867 -10.879592895507812 
365 2 -9.458741188049316 6.666235923767090 6.705605506896973 
366 2 -4.482150077819824 11.293017387390137 -3.884494066238403 
367 2 -7.915790081024170 4.365467548370361 -10.707993507385254 
368 2 -0.894489407539368 -5.408635139465332 -2.186614990234375 
369 2 0.153306409716606 -7.451024055480957 -9.522015571594238 
370 2 -2.321785211563110 8.691439628601074 -7.539913177490234 
371 2 -8.306133270263672 -6.048474311828613 -6.913703441619873 
372 2 -4.097346305847168 -7.539270401000977 3.860455513000488 
373 2 -2.622076749801636 -1.832773923873901 8.189151763916016 
374 2 11.218697547912598 5.234885692596436 -4.854447364807129 
375 2 -1.541982889175415 -3.367392301559448 10.892786026000977 
376 2 -0.241213947534561 -6.383196353912354 0.508989870548248 
377 2 4.658039569854736 -2.022154092788696 -5.413804054260254 
378 2 10.218976020812988 -3.703677892684937 -3.129369735717773 
379 2 6.842803955078125 -9.951131820678711 -11.231055259704590 
380 2 -11.509386062622070 -8.247025489807129 5.503697395324707 
381 2 -6.807227611541748 4.605798721313477 3.103512287139893 
382 2 10.542911529541016 9.757651329040527 1.556416869163513 
383 2 -5.639359474182129 -0.140081629157066 -1.645757317543030 
384 2 -0.596071064472198 -8.783061027526855 11.008146286010742 
385 2 -10.332428932189941 8.479753494262695 -10.031780242919922 
386 2 -7.328621387481689 4.425361633300781 -3.096163034439087 
387 2 -5.001285552978516 3.107959032058716 8.553096771240234 
388 2 7.071276187896729 6.991280078887939 -2.616661548614502 
389 2 -7.896230220794678 7.789632320404053 -3.787258148193359 
390 2 4.066099643707275 10.139016151428223 7.752346992492676 
391 2 -11.190971374511719 -0.664804995059967 9.058483123779297 
392 2 1.896392941474915 5.365065097808838 -7.005678176879883 
393 2 -7.421106338500977 -1.211491584777832 -6.302477836608887 
394 2 4.792041301727295 -0.031717393547297 3.869451999664307 
395 2 -1.065828204154968 5.377525806427002 1.675202727317810 
396 2 10.927378654479980 -1.934134840965271 4.055843353271484 
397 2 -6.562085628509521 3.240654706954956 -5.669850826263428 
398 2 -0.905883550643921 -1.202908873558044 -6.578819751739502 
399 2 -3.685702085494995 -9.832701683044434 8.547139167785645 
400 2 -0.500044107437134 6.919876575469971 -8.061905860900879 
401 2 9.822654724121094 -4.504690170288086 3.657125234603882 
402 2 -11.007400512695312 -4.470042705535889 4.920673370361328 
403 2 -6.530018329620361 -4.998546600341797 -3.366362810134888 
404 2 3.637343168258667 -3.114359617233276 1.680130481719971 
405 2 -8.232347488403320 -4.863563060760498 0.561698913574219 
406 2 3.001857757568359 0.709335625171661 6.205804347991943 
407 2 5.682270050048828 -0.071396127343178 6.584622859954834 
408 2 -10.175354003906250 -6.580840110778809 0.517209589481354 
409 2 5.187160491943359 -5.767314910888672 1.097823143005371 
410 2 5.591646194458008 -4.144930362701416 -10.581289291381836 
411 2 0.873726904392242 -2.330169439315796 0.950689494609833 
412 2 -0.954235672950745 -9.929646492004395 2.493704319000244 
413 2 -4.986843109130859 7.389745235443115 -7.683420181274414 
414 2 -7.605220317840576 -1.459049820899963 -0.350460290908813 
415 2 3.937325239181519 -5.346341609954834 5.684617042541504 
416 2 9.571479797363281 -1.755774617195129 6.082946300506592 
417 2 8.365857124328613 -4.293852329254150 8.985786437988281 
418 2 -6.365474224090576 -10.500553131103516 -5.396420001983643 
419 2 -1.265453100204468 -0.827772974967957 10.462234497070312 
420 2 3.490003585815430 7.649173736572266 -7.866007328033447 
421 2 -10.574618339538574 0.623484671115875 6.601426124572754 
422 2 9.244102478027344 7.298601150512695 -4.240196228027344 
423 2 -1.920271396636963 4.568087100982666 6.262941837310791 
424 2 4.080875873565674 -9.590881347656250 1.202829360961914 
425 2 -0.039978887885809 -10.965167045593262 5.656176090240479 
426 2 -6.561684608459473 -0.537687242031097 3.295637369155884 
427 2 8.014557838439941 -2.027671337127686 -0.433507919311523 
428 2 -2.841898441314697 -1.640402197837830 -1.059021949768066 
429 2 3.895006418228149 2.934224128723145 -4.583132743835449 
430 2 1.470882654190063 -9.827212333679199 -8.768997192382812 
431 2 -5.328434944152832 8.496688842773438 9.785421371459961 
432 2 -11.083555221557617 -9.970267295837402 3.499684333801270 
433 2 -10.615291595458984 7.995693206787109 4.846253395080566 
434 2 6.167638301849365 -5.346980571746826 7.312433719635010 
435 2 -1.663886666297913 -6.260849475860596 5.084929943084717 
436 2 9.957707405090332 0.459493041038513 -2.954556703567505 
437 2 -11.024157524108887 -3.721537828445435 1.922345757484436 
438 2 -5.896860599517822 9.560812950134277 -8.624638557434082 
439 2 -3.377267837524414 -10.229302406311035 3.758066654205322 
440 2 -1.478710532188416 1.968930125236511 4.828591823577881 
441 2 -6.898519039154053 -10.863063812255859 -0.084237717092037 
442 2 1.208792686462402 8.279764175415039 11.335211753845215 
443 2 -0.926334917545319 -9.514338493347168 -8.047806739807129 
444 2 -6.870170593261719 4.739169120788574 0.686415851116180 
445 2 -7.260097503662109 1.203380465507507 -6.831788539886475 
446 2 7.410039424896240 1.455112934112549 3.946635246276855 
447 2 -6.610749721527100 0.741707205772400 9.034770011901855 
448 2 0.308750450611115 3.847901344299316 3.789106369018555 
449 2 9.243768692016602 5.811197280883789 -6.709894180297852 
450 2 11.577697753906250 -6.514094829559326 3.602663993835449 
451 2 0.747473180294037 2.351105928421021 5.991348266601562 
452 2 2.756321191787720 -1.519035935401917 4.370274543762207 
453 2 2.595345258712769 -1.647110581398010 -1.397324442863464 
454 2 -4.572839260101318 3.325965881347656 1.788753032684326 
455 2 10.212799072265625 0.709451735019684 5.769361495971680 
456 2 -6.417222023010254 10.975242614746094 7.222688198089600 
457 2 3.893912076950073 8.242959022521973 -10.718740463256836 
458 2 -3.395197629928589 0.216645106673241 9.526424407958984 
459 2 5.901810646057129 4.901207923889160 9.594704627990723 
460 2 -1.865724563598633 -5.601007938385010 7.584249019622803 
461 2 6.872998714447021 8.368668556213379 -10.381196975708008 
462 2 11.405902862548828 5.729472160339355 8.094039916992188 
463 2 -1.196914196014404 6.347387790679932 4.173504829406738 
464 2 0.602226376533508 -1.421803951263428 6.566816329956055 
465 2 5.505099296569824 2.124197483062744 -2.608829021453857 
466 2 9.746244430541992 -4.596605777740479 6.317964553833008 
467 2 -4.856006622314453 4.383532524108887 10.848854064941406 
468 2 9.539979934692383 -10.684735298156738 -10.658555030822754 
469 2 -8.766463279724121 -9.226492881774902 4.870829105377197 
470 2 -8.893201828002930 -8.946917533874512 0.108182519674301 
471 2 2.506783008575439 -7.183269977569580 5.265241146087646 
472 2 0.421284109354019 0.518922567367554 -10.265120506286621 
473 2 6.754187583923340 -7.364298820495605 -5.213279247283936 
474 2 -2.397377490997314 -7.911801815032959 -9.853538513183594 
475 2 -0.970636188983917 9.974002838134766 -0.768569171428680 