ITEM: TIMESTEP
0
ITEM: NUMBER OF ATOMS
1008
ITEM: BOX BOUNDS xy xz yz pp pp pp
0.0 23.3006801605 0.0
0.0 23.3006801605 0.0
0.0 23.3006801605 0.0
ITEM: ATOMS id type x y z
1 1 4.077220916748047 -7.077105522155762 -8.024938583374023 
2 1 0.090923815965652 6.242227554321289 -1.376028895378113 
3 1 -10.979754447937012 5.584151744842529 -3.306173324584961 
4 1 -1.369454503059387 3.190831661224365 -1.393551230430603 
5 1 5.841366767883301 -11.603593826293945 -11.440180778503418 
6 1 0.073071777820587 -2.433806896209717 10.355856895446777 
7 1 8.046385765075684 0.192712321877480 -3.373773813247681 
8 1 -4.105776786804199 -1.180151820182800 -4.690697669982910 
9 1 -9.720237731933594 10.338534355163574 -1.622084617614746 
10 1 5.294709205627441 -0.228712320327759 -9.566723823547363 
11 1 9.667787551879883 2.084146976470947 6.987698078155518 
12 1 9.064107894897461 -2.773932933807373 4.438657760620117 
13 1 0.859541177749634 3.392756223678589 9.697136878967285 
14 1 -6.782021045684814 4.507738590240479 -1.296700358390808 
15 1 -5.335178375244141 -3.848480939865112 5.447869300842285 
16 1 2.991118907928467 -8.998168945312500 4.427120208740234 
17 1 -10.328635215759277 3.586756229400635 5.761751174926758 
18 1 -9.558445930480957 2.269685983657837 -2.336740970611572 
19 1 -0.696813941001892 -1.426994442939758 5.057096004486084 
20 1 -10.232846260070801 -2.666464090347290 8.237128257751465 
21 1 10.858029365539551 -5.640787601470947 5.209421634674072 
22 1 0.005570453591645 -7.205857753753662 -3.382781505584717 
23 1 -5.773261547088623 -7.132154941558838 7.338997364044189 
24 1 7.716689109802246 4.576692581176758 9.125102996826172 
25 1 7.262319087982178 -2.692180633544922 9.255029678344727 
26 1 -5.594876289367676 6.768594741821289 7.012769699096680 
27 1 8.127196311950684 -10.815379142761230 2.404125452041626 
28 1 0.457328289747238 10.309390068054199 6.129099369049072 
29 1 -3.041521072387695 -10.964099884033203 -4.529633998870850 
30 1 -6.072052955627441 2.937519550323486 -7.517002582550049 
31 1 -1.405004620552063 5.151175022125244 -7.491205692291260 
32 1 -11.520046234130859 6.808618545532227 6.376371860504150 
33 1 4.577884674072266 6.143750190734863 1.220743536949158 
34 1 2.119716167449951 3.468070983886719 0.011259503662586 
35 1 0.422340720891953 -1.559098601341248 -5.460001468658447 
36 1 -10.605237007141113 -11.350661277770996 10.187209129333496 
37 1 11.558359146118164 -0.644994735717773 5.465322971343994 
38 1 -4.757413387298584 1.447066903114319 -1.400946855545044 
39 1 4.417135238647461 -4.057398319244385 -6.097908020019531 
40 1 -7.238422393798828 -4.514413356781006 2.396789550781250 
41 1 -3.389421463012695 -7.111987590789795 -5.160907268524170 
42 1 3.083420515060425 -10.236210823059082 -9.874923706054688 
43 1 -8.529287338256836 5.328327655792236 -9.090588569641113 
44 1 -2.305134296417236 -8.947690963745117 -1.684661507606506 
45 1 -8.408691406250000 10.680765151977539 7.689291477203369 
46 1 0.685204267501831 9.165567398071289 9.651509284973145 
47 1 7.305336952209473 -9.048626899719238 -4.443306446075439 
48 1 4.878018379211426 -8.962774276733398 8.854987144470215 
49 1 3.520714282989502 11.532686233520508 -5.816524028778076 
50 1 -10.713363647460938 -5.649671077728271 2.161090612411499 
51 1 -5.880522251129150 10.979779243469238 5.282163619995117 
52 1 -11.029627799987793 -0.513346970081329 -0.978620588779449 
53 1 -2.008191347122192 1.061467885971069 1.054356813430786 
54 1 -1.528833627700806 -0.701106965541840 -2.105878591537476 
55 1 3.653295040130615 -4.175563335418701 9.963080406188965 
56 1 2.947981119155884 8.304469108581543 -4.216019630432129 
57 1 6.790211677551270 -5.771271228790283 -10.487470626831055 
58 1 3.769510507583618 5.519915103912354 -1.935176253318787 
59 1 3.826720237731934 9.354511260986328 -8.932730674743652 
60 1 0.531439781188965 5.456392288208008 2.865892887115479 
61 1 2.394941568374634 1.006166696548462 -7.218997001647949 
62 1 8.514684677124023 7.594347000122070 -6.001734256744385 
63 1 -1.804840087890625 -5.526158332824707 -0.268333077430725 
64 1 -5.075026035308838 -6.574275970458984 0.815212011337280 
65 1 8.822455406188965 6.172193527221680 -2.691619873046875 
66 1 0.285409867763519 -3.353028774261475 -8.780462265014648 
67 1 5.449381351470947 -3.751901626586914 1.842297315597534 
68 1 9.276831626892090 7.221477508544922 11.305623054504395 
69 1 -11.526224136352539 -9.653792381286621 -2.364461898803711 
70 1 -6.836968898773193 -3.004606008529663 -6.487809658050537 
71 1 -1.061084032058716 9.615086555480957 -6.093519687652588 
72 1 3.789239406585693 1.162438869476318 2.536921739578247 
73 1 -7.488548755645752 0.467101514339447 -5.045243263244629 
74 1 -3.521224260330200 4.593164443969727 -10.271586418151855 
75 1 -10.546118736267090 -6.088706493377686 10.868272781372070 
76 1 3.604083538055420 10.624408721923828 3.712120532989502 
77 1 3.263920545578003 10.176445960998535 -1.507700324058533 
78 1 10.779788970947266 11.247445106506348 0.219520375132561 
79 1 3.981092453002930 -9.735095024108887 -2.890958547592163 
80 1 10.089986801147461 0.607620120048523 -9.823368072509766 
81 1 -9.817191123962402 0.682637870311737 8.361138343811035 
82 1 1.743240356445312 -6.392977237701416 0.110110655426979 
83 1 -2.596567630767822 9.530107498168945 0.265318155288696 
84 1 1.925723314285278 -0.615538954734802 -10.358633041381836 
85 1 -7.746667861938477 -3.152387619018555 10.851063728332520 
86 1 -8.431321144104004 9.532010078430176 1.791301727294922 
87 1 7.695316314697266 8.220807075500488 8.146990776062012 
88 1 -2.768392086029053 1.788454055786133 -6.531066894531250 
89 1 -2.896193027496338 5.369174003601074 4.762855052947998 
90 1 9.588924407958984 -4.253831863403320 -8.468175888061523 
91 1 3.391122817993164 -11.610603332519531 6.977469921112061 
92 1 3.637205600738525 1.670735239982605 -3.100875139236450 
93 1 -7.172984123229980 8.077529907226562 10.183835983276367 
94 1 -8.633082389831543 7.806616306304932 5.103682994842529 
95 1 -9.062443733215332 10.164819717407227 -10.390273094177246 
96 1 5.699156761169434 4.834928035736084 -9.816227912902832 
97 1 -2.166972875595093 -9.557893753051758 9.627424240112305 
98 1 10.531473159790039 -7.395162105560303 -0.050930164754391 
99 1 0.187185764312744 -7.226001739501953 9.940830230712891 
100 1 -7.088743209838867 8.145690917968750 -2.071656942367554 
101 1 4.142592906951904 -0.990680515766144 5.589669227600098 
102 1 6.951164722442627 1.562359213829041 11.086745262145996 
103 1 0.553217411041260 -9.818704605102539 7.186564922332764 
104 1 -10.149180412292480 0.643137633800507 -11.427139282226562 
105 1 7.230021476745605 11.160081863403320 -5.574219226837158 
106 1 -9.649884223937988 -1.807589650154114 -4.272175312042236 
107 1 -5.136849403381348 -4.955518245697021 10.203615188598633 
108 1 -1.639927506446838 6.230148792266846 -4.407402515411377 
109 1 -10.621647834777832 8.038475990295410 -8.118272781372070 
110 1 -1.297896027565002 6.407664299011230 10.743575096130371 
111 1 -1.843990802764893 7.821979522705078 -9.297765731811523 
112 1 7.575855255126953 -7.545559883117676 3.953745365142822 
113 1 11.164186477661133 0.626285612583160 -4.678064346313477 
114 1 11.377720832824707 9.061314582824707 -4.463766574859619 
115 1 6.774324893951416 3.629888772964478 -3.167528152465820 
116 1 -7.903392314910889 -7.610629081726074 4.166578292846680 
117 1 -2.253044843673706 -3.741945028305054 7.639676570892334 
118 1 -2.932412147521973 9.068489074707031 6.503361225128174 
119 1 3.476505994796753 -6.992207050323486 -11.587272644042969 
120 1 11.119496345520020 9.572298049926758 8.722846984863281 
121 1 9.817299842834473 4.080842971801758 -5.496847152709961 
122 1 -6.581873893737793 11.379773139953613 -4.049140930175781 
123 1 -11.616171836853027 3.969694375991821 8.931130409240723 
124 1 7.513715267181396 -11.467209815979004 8.740336418151855 
125 1 -7.013425350189209 0.512979328632355 11.011845588684082 
126 1 -9.785899162292480 1.454481959342957 3.000738620758057 
127 1 -10.763458251953125 2.696812629699707 -7.644221305847168 
128 1 -3.077133893966675 0.098419629037380 7.513575553894043 
129 1 2.673835039138794 -6.228973388671875 7.097569465637207 
130 1 -3.869851112365723 -4.512690067291260 -7.807597160339355 
131 1 -3.655517816543579 6.404320716857910 -1.466317772865295 
132 1 4.870328903198242 -7.706917762756348 1.346220612525940 
133 1 -5.580686092376709 7.595604419708252 -9.604144096374512 
134 1 -7.923184871673584 0.272823870182037 -8.577645301818848 
135 1 7.315903186798096 9.515383720397949 -8.899290084838867 
136 1 -8.281934738159180 -8.849392890930176 8.926114082336426 
137 1 -1.559036731719971 -4.017676353454590 -3.704173564910889 
138 1 -7.227333068847656 -0.784738540649414 1.472047567367554 
139 1 -5.289433956146240 -10.820401191711426 8.257097244262695 
140 1 -4.281297206878662 3.668503284454346 -3.717114686965942 
141 1 8.460963249206543 -9.055896759033203 -10.622177124023438 
142 1 1.506573557853699 8.464706420898438 1.302745223045349 
143 1 0.329194396734238 1.936214923858643 3.921967744827271 
144 1 8.745022773742676 11.025026321411133 -2.388065099716187 
145 1 7.299057006835938 -9.184134483337402 -0.833087682723999 
146 1 -11.480396270751953 -2.699306011199951 -11.092002868652344 
147 1 -1.850155949592590 1.139130353927612 10.425446510314941 
148 1 5.726269721984863 0.942804694175720 -0.553059816360474 
149 1 -4.879705429077148 -4.903954982757568 -2.463438510894775 
150 1 6.505734920501709 -2.413375377655029 -1.490696907043457 
151 1 9.535388946533203 10.862455368041992 -11.390807151794434 
152 1 0.948902070522308 -2.951801300048828 -1.050511956214905 
153 1 -1.184296250343323 -2.637004137039185 1.931180596351624 
154 1 5.171588897705078 6.995671749114990 -6.845875740051270 
155 1 9.352605819702148 -1.644578576087952 0.770245254039764 
156 1 -6.440546989440918 2.924794912338257 1.696207404136658 
157 1 5.879765987396240 1.872207641601562 7.418472766876221 
158 1 10.069953918457031 -0.375387251377106 9.850219726562500 
159 1 -7.594676017761230 6.093964576721191 2.053821563720703 
160 1 -3.699932098388672 4.360186576843262 9.300983428955078 
161 1 -6.653053283691406 0.646844983100891 4.823931217193604 
162 1 -3.664026021957397 9.325592041015625 9.942680358886719 
163 1 11.549011230468750 -7.264448165893555 -9.201157569885254 
164 1 -1.942415118217468 -4.894043445587158 -11.233057022094727 
165 1 7.656740188598633 4.133557319641113 0.277266919612885 
166 1 -7.474624156951904 10.481450080871582 -7.167757987976074 
167 1 -5.635598659515381 -8.504682540893555 -3.030227661132812 
168 1 8.091521263122559 -2.432843923568726 -10.360755920410156 
169 1 0.988402605056763 -8.953988075256348 -6.907914161682129 
170 1 -0.278570890426636 9.743693351745605 -2.558638334274292 
171 1 6.944937229156494 -5.879193305969238 9.014646530151367 
172 1 -8.487380027770996 7.317246437072754 -5.548185825347900 
173 1 3.408406972885132 -2.239003181457520 -3.308485269546509 
174 1 3.071323871612549 -5.696300983428955 3.692072868347168 
175 1 -11.263748168945312 -9.448213577270508 6.962625026702881 
176 1 -4.954613208770752 6.190950393676758 -6.195951938629150 
177 1 9.001751899719238 -4.960861206054688 1.782775521278381 
178 1 4.893832683563232 4.076746940612793 4.442481994628906 
179 1 6.079638957977295 -10.149308204650879 -7.939083099365234 
180 1 -10.848784446716309 4.290134429931641 -11.140499114990234 
181 1 -10.947587966918945 -1.894947409629822 -7.857716083526611 
182 1 2.304011821746826 -9.882184028625488 0.254888087511063 
183 1 3.994512081146240 8.198367118835449 8.085802078247070 
184 1 -3.922680854797363 -8.908967971801758 -10.469721794128418 
185 1 -7.258152484893799 -7.165506362915039 -10.969501495361328 
186 1 0.297739803791046 1.612541437149048 -4.355040550231934 
187 1 -5.210111618041992 -1.947577118873596 -10.111208915710449 
188 1 9.383967399597168 8.289113044738770 0.315462112426758 
189 1 9.942126274108887 5.397390365600586 -8.543381690979004 
190 1 2.327895641326904 -10.558052062988281 10.265089988708496 
191 1 -6.684703826904297 4.342984676361084 11.212077140808105 
192 1 10.461691856384277 10.690521240234375 -7.292444229125977 
193 1 -0.502124011516571 11.560755729675293 1.952673792839050 
194 1 2.323413133621216 7.087305545806885 -11.142322540283203 
195 1 -8.998445510864258 -8.292501449584961 -4.387599945068359 
196 1 5.852880477905273 -4.502285480499268 5.573654651641846 
197 1 -8.476718902587891 -4.781132698059082 -3.463263034820557 
198 1 7.620263099670410 2.298741817474365 -7.931938171386719 
199 1 8.925473213195801 -1.131423234939575 -6.763944149017334 
200 1 10.773615837097168 -3.963257312774658 -1.329110145568848 
201 1 -9.510520935058594 -10.993437767028809 4.369954586029053 
202 1 3.872441291809082 -3.745833635330200 -9.728089332580566 
203 1 8.347239494323730 3.060402870178223 3.736892938613892 
204 1 -8.454710960388184 -7.042423725128174 -0.404924452304840 
205 1 -6.738907337188721 2.636217594146729 8.037410736083984 
206 1 10.384984970092773 5.728035926818848 2.178977489471436 
207 1 -6.496373653411865 -6.528726100921631 -7.428993225097656 
208 1 -2.464615583419800 -10.713679313659668 -8.014422416687012 
209 1 -0.022094029933214 -8.124676704406738 2.561816453933716 
210 1 5.390442848205566 -0.386146575212479 -5.909157752990723 
211 1 5.741188526153564 8.024798393249512 11.395641326904297 
212 1 -4.075978755950928 -1.073106765747070 3.193928956985474 
213 1 2.656360626220703 6.102518081665039 5.910943031311035 
214 1 6.189019680023193 -10.350846290588379 5.500238418579102 
215 1 -1.607429146766663 10.971649169921875 -11.274605751037598 
216 1 6.654869556427002 9.121335983276367 1.995302557945251 
217 1 -2.272177696228027 -1.077337026596069 -7.941819667816162 
218 1 4.921205043792725 3.324322462081909 -6.260395526885986 
219 1 7.039460182189941 -6.147809028625488 -6.648874282836914 
220 1 -6.489120960235596 -1.200236439704895 7.855988502502441 
221 1 -1.057644724845886 8.272107124328613 3.534696817398071 
222 1 -1.963821172714233 -7.393159866333008 6.712585926055908 
223 2 -5.217296600341797 -1.428801059722900 1.370531082153320 
224 2 -9.139184951782227 8.481561660766602 -1.465787649154663 
225 2 10.329890251159668 9.576107025146484 4.702477931976318 
226 2 6.446746826171875 2.705107212066650 -0.329027831554413 
227 2 -4.375619411468506 -8.244897842407227 1.185887813568115 
228 2 9.222379684448242 -2.718180894851685 -5.456587791442871 
229 2 9.181150436401367 -8.803830146789551 -5.238296985626221 
230 2 -8.163997650146484 7.724575996398926 1.026776194572449 
231 2 -6.149992465972900 9.599596023559570 -3.300075292587280 
232 2 10.920903205871582 10.976430892944336 10.227503776550293 
233 2 -5.908652305603027 2.827534437179565 -0.555916190147400 
234 2 6.627205848693848 -10.711304664611816 3.692903041839600 
235 2 7.295528411865234 -4.304573059082031 -2.234853029251099 
236 2 10.668106079101562 -5.901094913482666 -1.333229422569275 
237 2 9.154617309570312 10.232965469360352 -8.625743865966797 
238 2 -5.168876171112061 -10.571331024169922 -10.820132255554199 
239 2 10.996873855590820 -3.536232948303223 -7.333352565765381 
240 2 -3.643219470977783 8.234214782714844 -9.730453491210938 
241 2 7.466388225555420 7.700366497039795 10.351433753967285 
242 2 6.052932739257812 3.629363775253296 -8.067772865295410 
243 2 -9.643003463745117 -11.235950469970703 -9.679460525512695 
244 2 -2.791783332824707 8.612984657287598 4.479881763458252 
245 2 -1.117495298385620 9.597392082214355 -9.865078926086426 
246 2 4.296060085296631 -10.543692588806152 -7.078701019287109 
247 2 6.284618377685547 -5.905360698699951 -8.526952743530273 
248 2 9.318530082702637 10.064534187316895 -0.641045570373535 
249 2 -6.316423416137695 -9.002163887023926 8.183496475219727 
250 2 -6.879055976867676 -11.082218170166016 -8.014369010925293 
251 2 -3.962404012680054 10.284207344055176 -1.099552869796753 
252 2 -11.444122314453125 -10.017997741699219 11.424211502075195 
253 2 2.069157838821411 4.234144210815430 8.300078392028809 
254 2 -9.357705116271973 1.592057943344116 -8.375954627990723 
255 2 -11.418623924255371 7.500637531280518 -3.523602247238159 
256 2 -6.910365581512451 10.651191711425781 1.826009392738342 
257 2 10.880969047546387 0.767876923084259 -0.645121157169342 
258 2 10.495260238647461 2.683510065078735 -4.213046073913574 
259 2 11.591356277465820 8.453308105468750 7.286110877990723 
260 2 11.232323646545410 10.927884101867676 -10.404910087585449 
261 2 4.598730564117432 -3.512335300445557 -7.935239315032959 
262 2 4.582690715789795 5.165760040283203 2.850844144821167 
263 2 -0.412241637706757 -8.547737121582031 -2.085892438888550 
264 2 -3.716332912445068 -5.246122837066650 11.517593383789062 
265 2 -3.743310213088989 0.921594202518463 0.088917374610901 
266 2 -3.699803590774536 -3.752549886703491 6.491175651550293 
267 2 -2.267958402633667 -10.503699302673340 -2.826082706451416 
268 2 -4.476112365722656 8.148602485656738 -5.264680385589600 
269 2 9.404155731201172 7.381545543670654 -1.341605186462402 
270 2 -9.817328453063965 10.736019134521484 11.324411392211914 
271 2 -7.900319576263428 -9.019014358520508 -10.207262992858887 
272 2 3.271678447723389 -4.678242683410645 -11.461665153503418 
273 2 -8.703210830688477 -5.943336486816406 -1.922443866729736 
274 2 10.191746711730957 -3.215836048126221 -10.133457183837891 
275 2 -9.016215324401855 -0.122665874660015 2.042213916778564 
276 2 5.485712528228760 -0.966578781604767 -0.714861035346985 
277 2 7.870877742767334 4.606904506683350 -1.653155207633972 
278 2 -3.344161748886108 -0.149427369236946 -6.249143600463867 
279 2 7.258327007293701 8.464445114135742 0.099827863276005 
280 2 -4.736631393432617 -10.938431739807129 1.274904131889343 
281 2 2.511888980865479 -9.597553253173828 -1.583038568496704 
282 2 -10.292430877685547 -3.719203948974609 -3.856808662414551 
283 2 -9.713009834289551 -8.350730895996094 7.551015853881836 
284 2 -8.425721168518066 1.202167868614197 4.312507629394531 
285 2 9.005475997924805 2.032276391983032 -10.546173095703125 
286 2 7.743544101715088 -2.639251947402954 11.126245498657227 
287 2 -2.220051527023315 -1.524034023284912 3.742020130157471 
288 2 9.321209907531738 2.829221248626709 -0.139222517609596 
289 2 -6.808919906616211 6.286039829254150 10.981915473937988 
290 2 -8.575129508972168 9.238646507263184 6.480851173400879 
291 2 11.239276885986328 6.803218841552734 -8.366639137268066 
292 2 2.013170957565308 6.147675037384033 -1.452356457710266 
293 2 -7.984120368957520 -3.396271467208862 -4.903891563415527 
294 2 -3.194800615310669 0.755918025970459 2.649165391921997 
295 2 -10.371052742004395 -6.072951316833496 -8.454567909240723 
296 2 -4.290054321289062 6.313998222351074 5.647264480590820 
297 2 3.485658645629883 -5.709058761596680 -9.138642311096191 
298 2 -1.054730653762817 11.216618537902832 -7.690419197082520 
299 2 -8.791924476623535 -10.193814277648926 -4.151314258575439 
300 2 -1.933332920074463 7.377135276794434 6.624248504638672 
301 2 1.374444365501404 -10.832993507385254 -6.355829238891602 
302 2 -8.269035339355469 1.866441607475281 -3.819557666778564 
303 2 -7.363708496093750 -6.138111114501953 -9.260917663574219 
304 2 -6.719215393066406 -3.989752054214478 9.505451202392578 
305 2 -1.844633340835571 0.920102417469025 -8.231571197509766 
306 2 -2.004404067993164 -9.624195098876953 0.034872025251389 
307 2 -2.585273742675781 3.861457347869873 3.495049953460693 
308 2 2.694427728652954 -0.325680464506149 1.598350763320923 
309 2 2.012277364730835 -3.744911670684814 -2.635383129119873 
310 2 -9.246288299560547 -3.993240356445312 7.065814495086670 
311 2 7.520081520080566 -11.526561737060547 6.412058830261230 
312 2 -5.041194915771484 -2.348208665847778 -6.117159366607666 
313 2 5.863574981689453 8.022625923156738 7.129333496093750 
314 2 1.444078207015991 -6.183220863342285 -4.304057598114014 
315 2 3.900422334671021 4.130789279937744 -9.831886291503906 
316 2 0.119346216320992 8.963273048400879 4.844800472259521 
317 2 0.969947934150696 -10.995435714721680 1.052680492401123 
318 2 -7.978476047515869 -3.536457777023315 -7.891261100769043 
319 2 5.987566471099854 -10.752063751220703 9.765600204467773 
320 2 -11.107764244079590 -11.072608947753906 0.875287413597107 
321 2 -3.307872295379639 -4.704371929168701 -3.500850677490234 
322 2 1.664509654045105 7.417057037353516 -5.426618099212646 
323 2 -8.489612579345703 1.941817283630371 7.780755043029785 
324 2 10.199629783630371 -8.663021087646484 -9.384655952453613 
325 2 -5.184992313385010 -10.381336212158203 6.253846168518066 
326 2 11.405835151672363 -0.905920326709747 -9.436815261840820 
327 2 -10.709940910339355 -3.967842817306519 -0.950881779193878 
328 2 -2.080361843109131 3.075689554214478 0.428636252880096 
329 2 8.386116027832031 11.404207229614258 10.392563819885254 
330 2 7.168254375457764 10.011095046997070 8.513805389404297 
331 2 9.860911369323730 6.596572875976562 5.876059055328369 
332 2 -7.070993900299072 -3.848132133483887 4.298301219940186 
333 2 -2.432185411453247 -7.706732749938965 -6.723169803619385 
334 2 -6.417835235595703 1.533205270767212 -9.050724029541016 
335 2 3.060501575469971 6.155793190002441 -3.705105066299438 
336 2 5.935091972351074 -3.650001049041748 -0.088456280529499 
337 2 7.827949523925781 -10.959698677062988 -1.325080871582031 
338 2 -0.997642815113068 -6.038989067077637 10.851868629455566 
339 2 -9.579812049865723 0.816084682941437 -1.066804409027100 
340 2 -9.108651161193848 -6.252391338348389 -4.513511180877686 
341 2 7.253563880920410 9.855358123779297 -2.583880901336670 
342 2 7.937047004699707 3.107498168945312 10.407329559326172 
343 2 -11.203740119934082 5.220843791961670 5.331299781799316 
344 2 8.206636428833008 8.026661872863770 -7.889358043670654 
345 2 -4.937986373901367 4.609482288360596 -7.416735172271729 
346 2 -11.168258666992188 3.038137197494507 -1.200487613677979 
347 2 5.020975112915039 -2.718672275543213 5.404560565948486 
348 2 10.471923828125000 4.974891185760498 -2.425958156585693 
349 2 4.964737892150879 7.826217174530029 9.678619384765625 
350 2 9.554270744323730 -10.938299179077148 1.150998115539551 
351 2 -5.137761116027832 -7.588527679443359 -6.218914031982422 
352 2 5.289886474609375 2.568740844726562 11.616745948791504 
353 2 -5.866171836853027 -11.050100326538086 3.880155324935913 
354 2 1.186244487762451 -4.868690490722656 6.354020595550537 
355 2 3.499280929565430 -10.571813583374023 8.703564643859863 
356 2 2.437386751174927 -5.864679813385010 1.838838696479797 
357 2 3.722535610198975 -2.352210283279419 10.353876113891602 
358 2 1.988155484199524 -1.839606761932373 -4.473414421081543 
359 2 -4.245226383209229 -8.942177772521973 -1.790357232093811 
360 2 9.852050781250000 2.189228057861328 2.978741407394409 
361 2 -11.534112930297852 -5.968688011169434 7.015811920166016 
362 2 3.252454996109009 -11.588935852050781 -0.095218420028687 
363 2 8.767080307006836 -2.382672071456909 -8.263629913330078 
364 2 -8.506783485412598 -3.739660263061523 -10.884901046752930 
365 2 -9.460368156433105 6.671709060668945 6.706921100616455 
366 2 -4.489075183868408 11.289005279541016 -3.884735822677612 
367 2 -7.909457206726074 4.369472026824951 -10.711499214172363 
368 2 -0.882176876068115 -5.403367519378662 -2.184391021728516 
369 2 0.177139043807983 -7.408044815063477 -9.547975540161133 
370 2 -2.317343950271606 8.709894180297852 -7.538833141326904 
371 2 -8.295715332031250 -6.046127796173096 -6.885386943817139 
372 2 -4.086275577545166 -7.534339904785156 3.875545024871826 
373 2 -2.619201898574829 -1.837412834167480 8.184837341308594 
374 2 11.219966888427734 5.209469318389893 -4.858003139495850 
375 2 -1.561449050903320 -3.348364591598511 10.865861892700195 
376 2 -0.224215835332870 -6.378535747528076 0.506183683872223 
377 2 4.569620132446289 -2.147609949111938 -5.444620609283447 
378 2 10.176268577575684 -3.742052555084229 -3.142038583755493 
379 2 6.857849597930908 -9.931556701660156 -11.222337722778320 
380 2 -11.515655517578125 -8.256776809692383 5.504799842834473 
381 2 -6.808748245239258 4.603887557983398 3.099031448364258 
382 2 10.547242164611816 9.754842758178711 1.566370964050293 
383 2 -5.661544322967529 -0.141638249158859 -1.644257545471191 
384 2 -0.580497026443481 -8.782381057739258 11.031782150268555 
385 2 -10.329107284545898 8.482468605041504 -10.028029441833496 
386 2 -7.334482669830322 4.420049190521240 -3.096586704254150 
387 2 -5.006310462951660 3.107676744461060 8.541970252990723 
388 2 7.074047088623047 6.978837490081787 -2.623069047927856 
389 2 -7.901238441467285 7.787770748138428 -3.790957689285278 
390 2 4.073304653167725 10.147613525390625 7.767334461212158 
391 2 -11.181547164916992 -0.663645148277283 9.049905776977539 
392 2 1.869961380958557 5.365111351013184 -7.013134479522705 
393 2 -7.445273399353027 -1.218082547187805 -6.287049293518066 
394 2 4.791504859924316 -0.035011660307646 3.872017621994019 
395 2 -1.059994816780090 5.366261959075928 1.682670712471008 
396 2 10.928193092346191 -1.940546154975891 4.051833629608154 
397 2 -6.579243183135986 3.257954835891724 -5.670485496520996 
398 2 -1.047550439834595 -1.080058693885803 -6.494056224822998 
399 2 -3.687140464782715 -9.825467109680176 8.559543609619141 
400 2 -0.506911695003510 6.934451580047607 -8.062635421752930 
401 2 9.824187278747559 -4.514163017272949 3.661334037780762 
402 2 -11.001573562622070 -4.478063583374023 4.914669513702393 
403 2 -6.540920734405518 -5.008504867553711 -3.364032745361328 
404 2 3.654997587203979 -3.130958318710327 1.705924153327942 
405 2 -8.223713874816895 -4.881412982940674 0.557591438293457 
406 2 3.002120971679688 0.708092749118805 6.194052219390869 
407 2 5.687953472137451 -0.075437009334564 6.580809593200684 
408 2 -10.173199653625488 -6.586085319519043 0.521546900272369 
409 2 5.199253559112549 -5.789332389831543 1.139753699302673 
410 2 5.571881771087646 -4.151687622070312 -10.566456794738770 
411 2 0.875483512878418 -2.340096712112427 0.951746106147766 
412 2 -0.950772106647491 -9.929820060729980 2.480849027633667 
413 2 -4.985878944396973 7.409772872924805 -7.683270931243896 
414 2 -7.610338211059570 -1.475482344627380 -0.345276892185211 
415 2 3.937795639038086 -5.356915473937988 5.705749511718750 
416 2 9.578271865844727 -1.761391758918762 6.083542346954346 
417 2 8.361042976379395 -4.314414501190186 9.005692481994629 
418 2 -6.361094474792480 -10.496507644653320 -5.394482135772705 
419 2 -1.260596394538879 -0.816675543785095 10.448693275451660 
420 2 3.484988689422607 7.619080066680908 -7.854333877563477 
421 2 -10.574419975280762 0.618241548538208 6.594770908355713 
422 2 9.247285842895508 7.262843608856201 -4.235370635986328 
423 2 -1.933496832847595 4.567436218261719 6.271651744842529 
424 2 4.107713699340820 -9.616600036621094 1.227988481521606 
425 2 -0.034333024173975 -10.968509674072266 5.687496662139893 
426 2 -6.570931911468506 -0.545619606971741 3.297348022460938 
427 2 8.040678977966309 -2.038719415664673 -0.459713697433472 
428 2 -2.861739397048950 -1.646415591239929 -1.047452092170715 
429 2 3.893448829650879 2.849201917648315 -4.615765094757080 
430 2 1.543397068977356 -9.754240036010742 -8.742815017700195 
431 2 -5.328715324401855 8.502223968505859 9.788055419921875 
432 2 -11.079519271850586 -9.973411560058594 3.500716686248779 
433 2 -10.615583419799805 7.995215892791748 4.845597743988037 
434 2 6.162768840789795 -5.351830005645752 7.327968120574951 
435 2 -1.653026342391968 -6.255832195281982 5.088248729705811 
436 2 9.917067527770996 0.430315792560577 -2.960359334945679 
437 2 -11.018684387207031 -3.728308439254761 1.925032734870911 
438 2 -5.898550033569336 9.578054428100586 -8.621056556701660 
439 2 -3.367777347564697 -10.235109329223633 3.754464387893677 
440 2 -1.480054616928101 1.965646862983704 4.827779293060303 
441 2 -6.901205539703369 -10.865343093872070 -0.087837226688862 
442 2 1.206439256668091 8.278941154479980 11.340516090393066 
443 2 -0.877701044082642 -9.480927467346191 -8.065583229064941 
444 2 -6.874516010284424 4.733969211578369 0.681998074054718 
445 2 -7.264843940734863 1.198388814926147 -6.822019577026367 
446 2 7.408359527587891 1.453126668930054 3.948873281478882 
447 2 -6.610802650451660 0.742337524890900 9.022963523864746 
448 2 0.305091828107834 3.848023653030396 3.803780317306519 
449 2 9.251530647277832 5.793632507324219 -6.710140705108643 
450 2 11.580968856811523 -6.521851539611816 3.603217363357544 
451 2 0.750537276268005 2.341092824935913 5.988758087158203 
452 2 2.757738828659058 -1.521002292633057 4.366421222686768 
453 2 2.576939344406128 -1.713620066642761 -1.427572131156921 
454 2 -4.574323654174805 3.324644804000854 1.791701316833496 
455 2 10.213229179382324 0.706223070621490 5.761039257049561 
456 2 -6.416045665740967 10.982707023620605 7.224781036376953 
457 2 3.893638610839844 8.211846351623535 -10.720881462097168 
458 2 -3.393758296966553 0.215154930949211 9.517706871032715 
459 2 5.910259246826172 4.917942523956299 9.570578575134277 
460 2 -1.856970429420471 -5.602350711822510 7.592226505279541 
461 2 6.894662857055664 8.354689598083496 -10.392359733581543 
462 2 11.406893730163574 5.735131740570068 8.086998939514160 
463 2 -1.206269145011902 6.343638420104980 4.184308528900146 
464 2 0.602876484394073 -1.420524358749390 6.558803558349609 
465 2 5.490378856658936 2.104202747344971 -2.621570825576782 
466 2 9.747837066650391 -4.605715274810791 6.322268486022949 
467 2 -4.851147651672363 4.418004035949707 10.818926811218262 
468 2 9.547613143920898 -10.669984817504883 -10.671997070312500 
469 2 -8.761604309082031 -9.228741645812988 4.869145870208740 
470 2 -8.893790245056152 -8.946263313293457 0.103981539607048 
471 2 2.510492801666260 -7.197834968566895 5.290595531463623 
472 2 0.389645189046860 0.538159370422363 -10.291423797607422 
473 2 6.709245204925537 -7.407143115997314 -5.209543228149414 
474 2 -2.379275798797607 -7.889939785003662 -9.839054107666016 
475 2 -0.973797678947449 9.984572410583496 -0.767025470733643 