LAMMPS (7 Dec 2015)
Reading data file ...
  triclinic box = (0 0 0) to (23.3007 23.3007 23.3007) with tilt (0 0 0)
  2 by 2 by 3 MPI processor grid
  reading atoms ...
  1008 atoms
Bisection: Getting new map
Scanning dump file ...
Reading snapshot from dump file ...
  triclinic box = (0 0 0) to (23.3007 23.3007 23.3007) with tilt (0 0 0)
  1008 atoms before read
  1008 atoms in snapshot
  0 atoms purged
  1008 atoms replaced
  0 atoms trimmed
  0 atoms added
  1008 atoms after read
Scanning dump file ...
Reading snapshot from dump file ...
  triclinic box = (0 0 0) to (23.3007 23.3007 23.3007) with tilt (0 0 0)
  1008 atoms before read
  1008 atoms in snapshot
  0 atoms purged
  1008 atoms replaced
  0 atoms trimmed
  0 atoms added
  1008 atoms after read
CR_UPDATE- 23.300680	23.300680	23.300680	0.000000	0.000000	0.000000
For k = 0, applying strain of 0.995
Changing box ...
  triclinic box = (0.0582517 0 0) to (23.2424 23.3007 23.3007) with tilt (0 0 0)
WARNING: Resetting reneighboring criteria during minimization (../min.cpp:168)
Ewald initialization ...
  G vector (1/distance) = 0.365089
  estimated absolute RMS force accuracy = 1.92191e-05
  estimated relative force accuracy = 1.33469e-06
  KSpace vectors: actual max1d max3d = 2088 10 4630
                  kxmax kymax kzmax  = 10 10 10
Neighbor list info ...
  2 neighbor list requests
  update every 1 steps, delay 0 steps, check yes
  max neighbors/atom: 2000, page size: 100000
  master list distance cutoff = 11
  ghost atom cutoff = 11
Setting up cg style minimization ...
  Unit style: metal
Memory usage per processor = 4.56264 Mbytes
Step Temp E_pair E_mol TotEng Press 
       0           10   -18274.269            0   -18272.967    3981.8102 
      22           10    -18274.42            0   -18273.118    222.52419 
Loop time of 0.25065 on 12 procs for 22 steps with 1008 atoms

99.6% CPU use with 12 MPI tasks x no OpenMP threads

Minimization stats:
  Stopping criterion = linesearch alpha is zero
  Energy initial, next-to-last, final = 
        -18274.2689204     -18274.4198749     -18274.4198749
  Force two-norm initial, final = 1.82373 0.118181
  Force max component initial, final = 0.174886 0.0116741
  Final line search alpha, max atom move = 4.76837e-07 5.56665e-09
  Iterations, force evaluations = 22 85

MPI task timing breakdown:
Section |  min time  |  avg time  |  max time  |%varavg| %total
---------------------------------------------------------------
Pair    | 0.091217   | 0.095237   | 0.10004    |   1.0 | 38.00
Kspace  | 0.13748    | 0.14006    | 0.14255    |   0.4 | 55.88
Neigh   | 0          | 0          | 0          |   0.0 |  0.00
Comm    | 0.00933    | 0.013687   | 0.018896   |   2.2 |  5.46
Output  | 0          | 0          | 0          |   0.0 |  0.00
Modify  | 0          | 0          | 0          |   0.0 |  0.00
Other   |            | 0.001665   |            |       |  0.66

Nlocal:    84 ave 88 max 79 min
Histogram: 1 0 1 2 0 3 1 2 1 1
Nghost:    2617.5 ave 2637 max 2591 min
Histogram: 2 1 1 1 1 0 0 0 1 5
Neighs:    18722.2 ave 19667 max 17469 min
Histogram: 1 0 1 1 1 2 2 2 1 1

Total # of neighbors = 224667
Ave neighs/atom = 222.884
Neighbor list builds = 0
Dangerous builds = 0
CR_UPDATE- 23.300680	23.300680	23.300680	0.000000	0.000000	0.000000
For k = 1, applying strain of 0.996667
Changing box ...
  triclinic box = (0.0388306 0 0) to (23.2618 23.3007 23.3007) with tilt (0 0 0)
WARNING: Resetting reneighboring criteria during minimization (../min.cpp:168)
Ewald initialization ...
  G vector (1/distance) = 0.365078
  estimated absolute RMS force accuracy = 1.92793e-05
  estimated relative force accuracy = 1.33888e-06
  KSpace vectors: actual max1d max3d = 2084 10 4630
                  kxmax kymax kzmax  = 10 10 10
Setting up cg style minimization ...
  Unit style: metal
Memory usage per processor = 4.56264 Mbytes
Step Temp E_pair E_mol TotEng Press 
      22           10   -18274.375            0   -18273.073    375.69016 
      36           10   -18274.436            0   -18273.135   -1965.2566 
Loop time of 0.200776 on 12 procs for 14 steps with 1008 atoms

100.0% CPU use with 12 MPI tasks x no OpenMP threads

Minimization stats:
  Stopping criterion = linesearch alpha is zero
  Energy initial, next-to-last, final = 
        -18274.3746596     -18274.4364403     -18274.4364403
  Force two-norm initial, final = 1.20835 0.156033
  Force max component initial, final = 0.115487 0.0165063
  Final line search alpha, max atom move = 4.76837e-07 7.87081e-09
  Iterations, force evaluations = 14 69

MPI task timing breakdown:
Section |  min time  |  avg time  |  max time  |%varavg| %total
---------------------------------------------------------------
Pair    | 0.073915   | 0.07676    | 0.080008   |   0.7 | 38.23
Kspace  | 0.10969    | 0.11198    | 0.11383    |   0.3 | 55.77
Neigh   | 0          | 0          | 0          |   0.0 |  0.00
Comm    | 0.0072238  | 0.010817   | 0.014999   |   2.0 |  5.39
Output  | 0          | 0          | 0          |   0.0 |  0.00
Modify  | 0          | 0          | 0          |   0.0 |  0.00
Other   |            | 0.001222   |            |       |  0.61

Nlocal:    84 ave 88 max 79 min
Histogram: 1 0 1 2 0 3 1 2 1 1
Nghost:    2615.75 ave 2635 max 2589 min
Histogram: 1 2 1 1 1 0 0 0 1 5
Neighs:    18692.8 ave 19636 max 17437 min
Histogram: 1 0 1 1 1 2 2 2 1 1

Total # of neighbors = 224314
Ave neighs/atom = 222.534
Neighbor list builds = 0
Dangerous builds = 0
CR_UPDATE- 23.300680	23.300680	23.300680	0.000000	0.000000	0.000000
For k = 2, applying strain of 0.998333
Changing box ...
  triclinic box = (0.0194211 0 0) to (23.2813 23.3007 23.3007) with tilt (0 0 0)
WARNING: Resetting reneighboring criteria during minimization (../min.cpp:168)
Ewald initialization ...
  G vector (1/distance) = 0.365066
  estimated absolute RMS force accuracy = 1.9345e-05
  estimated relative force accuracy = 1.34344e-06
  KSpace vectors: actual max1d max3d = 2084 10 4630
                  kxmax kymax kzmax  = 10 10 10
Setting up cg style minimization ...
  Unit style: metal
Memory usage per processor = 4.56264 Mbytes
Step Temp E_pair E_mol TotEng Press 
      36           10   -18274.397            0   -18273.096   -3190.8863 
      46           10   -18274.412            0   -18273.111   -4282.8768 
Loop time of 0.17284 on 12 procs for 10 steps with 1008 atoms

100.0% CPU use with 12 MPI tasks x no OpenMP threads

Minimization stats:
  Stopping criterion = linesearch alpha is zero
  Energy initial, next-to-last, final = 
        -18274.3972296     -18274.4123941     -18274.4123941
  Force two-norm initial, final = 0.600236 0.10672
  Force max component initial, final = 0.0571893 0.0124927
  Final line search alpha, max atom move = 9.53674e-07 1.19139e-08
  Iterations, force evaluations = 10 59

MPI task timing breakdown:
Section |  min time  |  avg time  |  max time  |%varavg| %total
---------------------------------------------------------------
Pair    | 0.063415   | 0.065932   | 0.069188   |   0.7 | 38.15
Kspace  | 0.094686   | 0.096272   | 0.097389   |   0.3 | 55.70
Neigh   | 0          | 0          | 0          |   0.0 |  0.00
Comm    | 0.0062623  | 0.0095781  | 0.013005   |   1.9 |  5.54
Output  | 0          | 0          | 0          |   0.0 |  0.00
Modify  | 0          | 0          | 0          |   0.0 |  0.00
Other   |            | 0.001058   |            |       |  0.61

Nlocal:    84 ave 88 max 79 min
Histogram: 1 0 1 2 0 3 1 2 1 1
Nghost:    2614.08 ave 2630 max 2589 min
Histogram: 1 2 1 0 1 1 0 0 0 6
Neighs:    18660.7 ave 19603 max 17408 min
Histogram: 1 0 1 1 1 2 2 2 1 1

Total # of neighbors = 223928
Ave neighs/atom = 222.151
Neighbor list builds = 0
Dangerous builds = 0
CR_UPDATE- 23.300680	23.300680	23.300680	0.000000	0.000000	0.000000
For k = 3, applying strain of 1
Changing box ...
  triclinic box = (0 0 0) to (23.3007 23.3007 23.3007) with tilt (0 0 0)
WARNING: Resetting reneighboring criteria during minimization (../min.cpp:168)
Ewald initialization ...
  G vector (1/distance) = 0.365055
  estimated absolute RMS force accuracy = 1.94166e-05
  estimated relative force accuracy = 1.34841e-06
  KSpace vectors: actual max1d max3d = 2084 10 4630
                  kxmax kymax kzmax  = 10 10 10
Setting up cg style minimization ...
  Unit style: metal
Memory usage per processor = 4.56264 Mbytes
Step Temp E_pair E_mol TotEng Press 
      46           10    -18274.34            0   -18273.038    -6722.922 
      48           10    -18274.34            0   -18273.038   -6720.6006 
Loop time of 0.07528 on 12 procs for 2 steps with 1008 atoms

100.2% CPU use with 12 MPI tasks x no OpenMP threads

Minimization stats:
  Stopping criterion = linesearch alpha is zero
  Energy initial, next-to-last, final = 
        -18274.3396557     -18274.3396598     -18274.3396598
  Force two-norm initial, final = 0.00477977 0.00320123
  Force max component initial, final = 0.000372915 0.00031399
  Final line search alpha, max atom move = 0.000976562 3.06631e-07
  Iterations, force evaluations = 2 25

MPI task timing breakdown:
Section |  min time  |  avg time  |  max time  |%varavg| %total
---------------------------------------------------------------
Pair    | 0.027229   | 0.0286     | 0.029933   |   0.5 | 37.99
Kspace  | 0.041086   | 0.042056   | 0.042903   |   0.3 | 55.87
Neigh   | 0          | 0          | 0          |   0.0 |  0.00
Comm    | 0.0027595  | 0.0041755  | 0.0056736  |   1.2 |  5.55
Output  | 0          | 0          | 0          |   0.0 |  0.00
Modify  | 0          | 0          | 0          |   0.0 |  0.00
Other   |            | 0.0004491  |            |       |  0.60

Nlocal:    84 ave 88 max 79 min
Histogram: 1 0 1 2 0 3 1 2 1 1
Nghost:    2612.08 ave 2629 max 2587 min
Histogram: 1 2 1 0 1 1 0 0 1 5
Neighs:    18631.8 ave 19573 max 17380 min
Histogram: 1 0 1 1 1 2 2 2 1 1

Total # of neighbors = 223581
Ave neighs/atom = 221.807
Neighbor list builds = 0
Dangerous builds = 0
CR_UPDATE- 23.300680	23.300680	23.300680	0.000000	0.000000	0.000000
For k = 4, applying strain of 1.00167
Changing box ...
  triclinic box = (-0.0194211 0 0) to (23.3201 23.3007 23.3007) with tilt (0 0 0)
WARNING: Resetting reneighboring criteria during minimization (../min.cpp:168)
Ewald initialization ...
  G vector (1/distance) = 0.365044
  estimated absolute RMS force accuracy = 1.94944e-05
  estimated relative force accuracy = 1.35381e-06
  KSpace vectors: actual max1d max3d = 2084 10 4630
                  kxmax kymax kzmax  = 10 10 10
Setting up cg style minimization ...
  Unit style: metal
Memory usage per processor = 4.56264 Mbytes
Step Temp E_pair E_mol TotEng Press 
      48           10   -18274.196            0   -18272.894   -10216.915 
      50           10   -18274.206            0   -18272.904     -9640.61 
      63           10   -18274.213            0   -18272.912   -9046.0485 
Loop time of 0.199864 on 12 procs for 15 steps with 1008 atoms

99.9% CPU use with 12 MPI tasks x no OpenMP threads

Minimization stats:
  Stopping criterion = linesearch alpha is zero
  Energy initial, next-to-last, final = 
        -18274.1958617     -18274.2133826     -18274.2133826
  Force two-norm initial, final = 0.596252 0.0696551
  Force max component initial, final = 0.0563532 0.00528165
  Final line search alpha, max atom move = 1.90735e-06 1.0074e-08
  Iterations, force evaluations = 15 67

MPI task timing breakdown:
Section |  min time  |  avg time  |  max time  |%varavg| %total
---------------------------------------------------------------
Pair    | 0.07177    | 0.075474   | 0.078434   |   0.8 | 37.76
Kspace  | 0.10918    | 0.11155    | 0.11303    |   0.3 | 55.81
Neigh   | 0          | 0          | 0          |   0.0 |  0.00
Comm    | 0.0084693  | 0.011568   | 0.016052   |   2.0 |  5.79
Output  | 2.5034e-05 | 2.6107e-05 | 3.314e-05  |   0.0 |  0.01
Modify  | 0          | 0          | 0          |   0.0 |  0.00
Other   |            | 0.001248   |            |       |  0.62

Nlocal:    84 ave 88 max 79 min
Histogram: 1 0 1 2 0 3 1 2 1 1
Nghost:    2607.33 ave 2628 max 2581 min
Histogram: 2 2 1 0 1 0 0 0 2 4
Neighs:    18602.1 ave 19539 max 17351 min
Histogram: 1 0 1 1 1 2 2 2 1 1

Total # of neighbors = 223225
Ave neighs/atom = 221.453
Neighbor list builds = 0
Dangerous builds = 0
CR_UPDATE- 23.300680	23.300680	23.300680	0.000000	0.000000	0.000000
For k = 5, applying strain of 1.00333
Changing box ...
  triclinic box = (-0.0388306 0 0) to (23.3395 23.3007 23.3007) with tilt (0 0 0)
WARNING: Resetting reneighboring criteria during minimization (../min.cpp:168)
Ewald initialization ...
  G vector (1/distance) = 0.365032
  estimated absolute RMS force accuracy = 1.95788e-05
  estimated relative force accuracy = 1.35968e-06
  KSpace vectors: actual max1d max3d = 2084 10 4630
                  kxmax kymax kzmax  = 10 10 10
Setting up cg style minimization ...
  Unit style: metal
Memory usage per processor = 4.56264 Mbytes
Step Temp E_pair E_mol TotEng Press 
      63           10   -18273.971            0   -18272.669    -13672.22 
      77           10   -18274.033            0   -18272.732   -11379.988 
Loop time of 0.203862 on 12 procs for 14 steps with 1008 atoms

99.8% CPU use with 12 MPI tasks x no OpenMP threads

Minimization stats:
  Stopping criterion = linesearch alpha is zero
  Energy initial, next-to-last, final = 
         -18273.970753     -18274.0334427     -18274.0334427
  Force two-norm initial, final = 1.18412 0.14936
  Force max component initial, final = 0.111555 0.0141981
  Final line search alpha, max atom move = 4.76837e-07 6.77021e-09
  Iterations, force evaluations = 14 69

MPI task timing breakdown:
Section |  min time  |  avg time  |  max time  |%varavg| %total
---------------------------------------------------------------
Pair    | 0.073916   | 0.076729   | 0.081736   |   0.9 | 37.64
Kspace  | 0.11207    | 0.1143     | 0.11588    |   0.4 | 56.07
Neigh   | 0          | 0          | 0          |   0.0 |  0.00
Comm    | 0.008285   | 0.011528   | 0.016088   |   2.1 |  5.65
Output  | 0          | 0          | 0          |   0.0 |  0.00
Modify  | 0          | 0          | 0          |   0.0 |  0.00
Other   |            | 0.001303   |            |       |  0.64

Nlocal:    84 ave 88 max 79 min
Histogram: 1 0 1 2 0 3 1 2 1 1
Nghost:    2605.08 ave 2625 max 2580 min
Histogram: 2 2 1 0 1 0 0 0 1 5
Neighs:    18572.5 ave 19497 max 17324 min
Histogram: 1 0 1 1 1 2 2 2 1 1

Total # of neighbors = 222870
Ave neighs/atom = 221.101
Neighbor list builds = 0
Dangerous builds = 0
CR_UPDATE- 23.300680	23.300680	23.300680	0.000000	0.000000	0.000000
For k = 6, applying strain of 1.005
Changing box ...
  triclinic box = (-0.0582517 0 0) to (23.3589 23.3007 23.3007) with tilt (0 0 0)
WARNING: Resetting reneighboring criteria during minimization (../min.cpp:168)
Ewald initialization ...
  G vector (1/distance) = 0.365021
  estimated absolute RMS force accuracy = 1.96704e-05
  estimated relative force accuracy = 1.36604e-06
  KSpace vectors: actual max1d max3d = 2084 10 4630
                  kxmax kymax kzmax  = 10 10 10
Setting up cg style minimization ...
  Unit style: metal
Memory usage per processor = 4.56264 Mbytes
Step Temp E_pair E_mol TotEng Press 
      77           10   -18273.662            0    -18272.36   -17092.509 
      96           10   -18273.807            0   -18272.505   -13565.376 
Loop time of 0.232888 on 12 procs for 19 steps with 1008 atoms

100.0% CPU use with 12 MPI tasks x no OpenMP threads

Minimization stats:
  Stopping criterion = linesearch alpha is zero
  Energy initial, next-to-last, final = 
        -18273.6621305     -18273.8067105     -18273.8067105
  Force two-norm initial, final = 1.76584 0.142764
  Force max component initial, final = 0.165774 0.0161377
  Final line search alpha, max atom move = 4.76837e-07 7.69507e-09
  Iterations, force evaluations = 19 79

MPI task timing breakdown:
Section |  min time  |  avg time  |  max time  |%varavg| %total
---------------------------------------------------------------
Pair    | 0.083814   | 0.087701   | 0.092653   |   0.9 | 37.66
Kspace  | 0.12792    | 0.13082    | 0.13328    |   0.4 | 56.17
Neigh   | 0          | 0          | 0          |   0.0 |  0.00
Comm    | 0.0084813  | 0.01288    | 0.017539   |   2.2 |  5.53
Output  | 0          | 0          | 0          |   0.0 |  0.00
Modify  | 0          | 0          | 0          |   0.0 |  0.00
Other   |            | 0.001483   |            |       |  0.64

Nlocal:    84 ave 88 max 79 min
Histogram: 1 0 1 2 0 3 1 2 1 1
Nghost:    2602.08 ave 2622 max 2576 min
Histogram: 1 3 1 0 0 1 0 0 2 4
Neighs:    18542.9 ave 19464 max 17299 min
Histogram: 1 0 1 1 1 2 2 2 1 1

Total # of neighbors = 222515
Ave neighs/atom = 220.749
Neighbor list builds = 0
Dangerous builds = 0
CR_UPDATE- 23.300680	23.300680	23.300680	0.000000	0.000000	0.000000
For k = 0, applying strain of 0.995
Changing box ...
  triclinic box = (0 0.0582517 0) to (23.3007 23.2424 23.3007) with tilt (0 0 0)
WARNING: Resetting reneighboring criteria during minimization (../min.cpp:168)
Ewald initialization ...
  G vector (1/distance) = 0.365089
  estimated absolute RMS force accuracy = 1.92191e-05
  estimated relative force accuracy = 1.33469e-06
  KSpace vectors: actual max1d max3d = 2088 10 4630
                  kxmax kymax kzmax  = 10 10 10
Setting up cg style minimization ...
  Unit style: metal
Memory usage per processor = 4.56264 Mbytes
Step Temp E_pair E_mol TotEng Press 
      96           10   -18274.422            0    -18273.12    3940.6167 
     100           10    -18274.53            0   -18273.228    1457.5342 
     125           10   -18274.569            0   -18273.267    381.81215 
Loop time of 0.373114 on 12 procs for 29 steps with 1008 atoms

99.9% CPU use with 12 MPI tasks x no OpenMP threads

Minimization stats:
  Stopping criterion = linesearch alpha is zero
  Energy initial, next-to-last, final = 
         -18274.421848     -18274.5686936     -18274.5686936
  Force two-norm initial, final = 1.76725 0.0640774
  Force max component initial, final = 0.170758 0.00663006
  Final line search alpha, max atom move = 1.90735e-06 1.26458e-08
  Iterations, force evaluations = 29 127

MPI task timing breakdown:
Section |  min time  |  avg time  |  max time  |%varavg| %total
---------------------------------------------------------------
Pair    | 0.13663    | 0.14245    | 0.14777    |   0.9 | 38.18
Kspace  | 0.20474    | 0.20754    | 0.21059    |   0.4 | 55.62
Neigh   | 0          | 0          | 0          |   0.0 |  0.00
Comm    | 0.014522   | 0.020711   | 0.028964   |   2.8 |  5.55
Output  | 2.5034e-05 | 2.5868e-05 | 3.2187e-05 |   0.0 |  0.01
Modify  | 0          | 0          | 0          |   0.0 |  0.00
Other   |            | 0.002383   |            |       |  0.64

Nlocal:    84 ave 88 max 79 min
Histogram: 1 0 1 2 0 3 1 2 1 1
Nghost:    2621.42 ave 2645 max 2601 min
Histogram: 2 2 2 0 0 1 2 0 0 3
Neighs:    18727.3 ave 19675 max 17451 min
Histogram: 1 0 1 1 1 2 2 2 1 1

Total # of neighbors = 224728
Ave neighs/atom = 222.944
Neighbor list builds = 0
Dangerous builds = 0
CR_UPDATE- 23.300680	23.300680	23.300680	0.000000	0.000000	0.000000
For k = 1, applying strain of 0.996667
Changing box ...
  triclinic box = (0 0.0388306 0) to (23.3007 23.2618 23.3007) with tilt (0 0 0)
WARNING: Resetting reneighboring criteria during minimization (../min.cpp:168)
Ewald initialization ...
  G vector (1/distance) = 0.365078
  estimated absolute RMS force accuracy = 1.92793e-05
  estimated relative force accuracy = 1.33888e-06
  KSpace vectors: actual max1d max3d = 2084 10 4630
                  kxmax kymax kzmax  = 10 10 10
Setting up cg style minimization ...
  Unit style: metal
Memory usage per processor = 4.56264 Mbytes
Step Temp E_pair E_mol TotEng Press 
     125           10   -18274.477            0   -18273.175    348.00028 
     146           10   -18274.542            0   -18273.241   -1959.9441 
Loop time of 0.23751 on 12 procs for 21 steps with 1008 atoms

99.6% CPU use with 12 MPI tasks x no OpenMP threads

Minimization stats:
  Stopping criterion = linesearch alpha is zero
  Energy initial, next-to-last, final = 
        -18274.4768928     -18274.5421799     -18274.5421799
  Force two-norm initial, final = 1.17106 0.0719819
  Force max component initial, final = 0.112803 0.00651354
  Final line search alpha, max atom move = 1.90735e-06 1.24236e-08
  Iterations, force evaluations = 21 79

MPI task timing breakdown:
Section |  min time  |  avg time  |  max time  |%varavg| %total
---------------------------------------------------------------
Pair    | 0.084939   | 0.088755   | 0.093155   |   0.9 | 37.37
Kspace  | 0.13083    | 0.13255    | 0.13535    |   0.4 | 55.81
Neigh   | 0          | 0          | 0          |   0.0 |  0.00
Comm    | 0.010803   | 0.014671   | 0.019771   |   2.1 |  6.18
Output  | 0          | 0          | 0          |   0.0 |  0.00
Modify  | 0          | 0          | 0          |   0.0 |  0.00
Other   |            | 0.001535   |            |       |  0.65

Nlocal:    84 ave 88 max 79 min
Histogram: 1 0 1 2 0 3 1 2 1 1
Nghost:    2618.17 ave 2641 max 2597 min
Histogram: 2 3 1 0 0 0 1 2 0 3
Neighs:    18692.8 ave 19636 max 17424 min
Histogram: 1 0 1 1 1 2 2 2 1 1

Total # of neighbors = 224313
Ave neighs/atom = 222.533
Neighbor list builds = 0
Dangerous builds = 0
CR_UPDATE- 23.300680	23.300680	23.300680	0.000000	0.000000	0.000000
For k = 2, applying strain of 0.998333
Changing box ...
  triclinic box = (0 0.0194211 0) to (23.3007 23.2813 23.3007) with tilt (0 0 0)
WARNING: Resetting reneighboring criteria during minimization (../min.cpp:168)
Ewald initialization ...
  G vector (1/distance) = 0.365066
  estimated absolute RMS force accuracy = 1.9345e-05
  estimated relative force accuracy = 1.34344e-06
  KSpace vectors: actual max1d max3d = 2084 10 4630
                  kxmax kymax kzmax  = 10 10 10
Setting up cg style minimization ...
  Unit style: metal
Memory usage per processor = 4.56264 Mbytes
Step Temp E_pair E_mol TotEng Press 
     146           10   -18274.448            0   -18273.146   -3204.7403 
     150           10   -18274.462            0    -18273.16   -4034.6369 
     158           10   -18274.465            0   -18273.163   -4282.4101 
Loop time of 0.181792 on 12 procs for 12 steps with 1008 atoms

100.0% CPU use with 12 MPI tasks x no OpenMP threads

Minimization stats:
  Stopping criterion = linesearch alpha is zero
  Energy initial, next-to-last, final = 
        -18274.4479102     -18274.4651215     -18274.4651215
  Force two-norm initial, final = 0.581762 0.0809965
  Force max component initial, final = 0.0558759 0.0135283
  Final line search alpha, max atom move = 1.90735e-06 2.58032e-08
  Iterations, force evaluations = 12 61

MPI task timing breakdown:
Section |  min time  |  avg time  |  max time  |%varavg| %total
---------------------------------------------------------------
Pair    | 0.066448   | 0.068806   | 0.073166   |   0.8 | 37.85
Kspace  | 0.099845   | 0.10186    | 0.10433    |   0.4 | 56.03
Neigh   | 0          | 0          | 0          |   0.0 |  0.00
Comm    | 0.0066268  | 0.0099486  | 0.013559   |   1.9 |  5.47
Output  | 2.408e-05  | 2.4736e-05 | 3.1948e-05 |   0.0 |  0.01
Modify  | 0          | 0          | 0          |   0.0 |  0.00
Other   |            | 0.001152   |            |       |  0.63

Nlocal:    84 ave 88 max 79 min
Histogram: 1 0 1 2 0 3 1 2 1 1
Nghost:    2615.42 ave 2635 max 2592 min
Histogram: 2 2 0 1 1 0 0 1 2 3
Neighs:    18662.8 ave 19606 max 17405 min
Histogram: 1 0 1 1 1 2 2 2 1 1

Total # of neighbors = 223954
Ave neighs/atom = 222.177
Neighbor list builds = 0
Dangerous builds = 0
CR_UPDATE- 23.300680	23.300680	23.300680	0.000000	0.000000	0.000000
For k = 3, applying strain of 1
Changing box ...
  triclinic box = (0 0 0) to (23.3007 23.3007 23.3007) with tilt (0 0 0)
WARNING: Resetting reneighboring criteria during minimization (../min.cpp:168)
Ewald initialization ...
  G vector (1/distance) = 0.365055
  estimated absolute RMS force accuracy = 1.94166e-05
  estimated relative force accuracy = 1.34841e-06
  KSpace vectors: actual max1d max3d = 2084 10 4630
                  kxmax kymax kzmax  = 10 10 10
Setting up cg style minimization ...
  Unit style: metal
Memory usage per processor = 4.56264 Mbytes
Step Temp E_pair E_mol TotEng Press 
     158           10    -18274.34            0   -18273.038    -6722.922 
     160           10    -18274.34            0   -18273.038   -6720.6006 
Loop time of 0.0758981 on 12 procs for 2 steps with 1008 atoms

100.1% CPU use with 12 MPI tasks x no OpenMP threads

Minimization stats:
  Stopping criterion = linesearch alpha is zero
  Energy initial, next-to-last, final = 
        -18274.3396557     -18274.3396598     -18274.3396598
  Force two-norm initial, final = 0.00477977 0.00320123
  Force max component initial, final = 0.000372915 0.00031399
  Final line search alpha, max atom move = 0.000976562 3.06631e-07
  Iterations, force evaluations = 2 25

MPI task timing breakdown:
Section |  min time  |  avg time  |  max time  |%varavg| %total
---------------------------------------------------------------
Pair    | 0.027695   | 0.028793   | 0.030324   |   0.5 | 37.94
Kspace  | 0.041361   | 0.042317   | 0.042995   |   0.2 | 55.75
Neigh   | 0          | 0          | 0          |   0.0 |  0.00
Comm    | 0.0028982  | 0.00432    | 0.0058575  |   1.2 |  5.69
Output  | 0          | 0          | 0          |   0.0 |  0.00
Modify  | 0          | 0          | 0          |   0.0 |  0.00
Other   |            | 0.0004687  |            |       |  0.62

Nlocal:    84 ave 88 max 79 min
Histogram: 1 0 1 2 0 3 1 2 1 1
Nghost:    2612.08 ave 2629 max 2587 min
Histogram: 1 2 1 0 1 1 0 0 1 5
Neighs:    18631.8 ave 19573 max 17380 min
Histogram: 1 0 1 1 1 2 2 2 1 1

Total # of neighbors = 223581
Ave neighs/atom = 221.807
Neighbor list builds = 0
Dangerous builds = 0
CR_UPDATE- 23.300680	23.300680	23.300680	0.000000	0.000000	0.000000
For k = 4, applying strain of 1.00167
Changing box ...
  triclinic box = (0 -0.0194211 0) to (23.3007 23.3201 23.3007) with tilt (0 0 0)
WARNING: Resetting reneighboring criteria during minimization (../min.cpp:168)
Ewald initialization ...
  G vector (1/distance) = 0.365044
  estimated absolute RMS force accuracy = 1.94944e-05
  estimated relative force accuracy = 1.35381e-06
  KSpace vectors: actual max1d max3d = 2084 10 4630
                  kxmax kymax kzmax  = 10 10 10
Setting up cg style minimization ...
  Unit style: metal
Memory usage per processor = 4.56264 Mbytes
Step Temp E_pair E_mol TotEng Press 
     160           10   -18274.144            0   -18272.842   -10202.655 
     168           10   -18274.156            0   -18272.854   -9184.6917 
Loop time of 0.169212 on 12 procs for 8 steps with 1008 atoms

100.1% CPU use with 12 MPI tasks x no OpenMP threads

Minimization stats:
  Stopping criterion = linesearch alpha is zero
  Energy initial, next-to-last, final = 
        -18274.1437028     -18274.1558575     -18274.1558575
  Force two-norm initial, final = 0.578473 0.13248
  Force max component initial, final = 0.0549439 0.0203203
  Final line search alpha, max atom move = 4.76837e-07 9.68948e-09
  Iterations, force evaluations = 8 57

MPI task timing breakdown:
Section |  min time  |  avg time  |  max time  |%varavg| %total
---------------------------------------------------------------
Pair    | 0.061519   | 0.064074   | 0.067257   |   0.8 | 37.87
Kspace  | 0.092821   | 0.094638   | 0.09598    |   0.3 | 55.93
Neigh   | 0          | 0          | 0          |   0.0 |  0.00
Comm    | 0.0067782  | 0.0094942  | 0.013208   |   1.8 |  5.61
Output  | 0          | 0          | 0          |   0.0 |  0.00
Modify  | 0          | 0          | 0          |   0.0 |  0.00
Other   |            | 0.001007   |            |       |  0.59

Nlocal:    84 ave 88 max 79 min
Histogram: 1 0 1 2 0 3 1 2 1 1
Nghost:    2604.92 ave 2624 max 2585 min
Histogram: 2 2 1 1 0 0 1 1 1 3
Neighs:    18601.2 ave 19534 max 17346 min
Histogram: 1 0 1 1 1 2 2 2 1 1

Total # of neighbors = 223214
Ave neighs/atom = 221.442
Neighbor list builds = 0
Dangerous builds = 0
CR_UPDATE- 23.300680	23.300680	23.300680	0.000000	0.000000	0.000000
For k = 5, applying strain of 1.00333
Changing box ...
  triclinic box = (0 -0.0388306 0) to (23.3007 23.3395 23.3007) with tilt (0 0 0)
WARNING: Resetting reneighboring criteria during minimization (../min.cpp:168)
Ewald initialization ...
  G vector (1/distance) = 0.365032
  estimated absolute RMS force accuracy = 1.95788e-05
  estimated relative force accuracy = 1.35968e-06
  KSpace vectors: actual max1d max3d = 2084 10 4630
                  kxmax kymax kzmax  = 10 10 10
Setting up cg style minimization ...
  Unit style: metal
Memory usage per processor = 4.56264 Mbytes
Step Temp E_pair E_mol TotEng Press 
     168           10   -18273.867            0   -18272.565   -13643.471 
     182           10   -18273.926            0   -18272.625   -11456.918 
Loop time of 0.203223 on 12 procs for 14 steps with 1008 atoms

99.8% CPU use with 12 MPI tasks x no OpenMP threads

Minimization stats:
  Stopping criterion = linesearch alpha is zero
  Energy initial, next-to-last, final = 
        -18273.8665288     -18273.9264293     -18273.9264293
  Force two-norm initial, final = 1.14878 0.129753
  Force max component initial, final = 0.108864 0.0138288
  Final line search alpha, max atom move = 4.76837e-07 6.59407e-09
  Iterations, force evaluations = 14 69

MPI task timing breakdown:
Section |  min time  |  avg time  |  max time  |%varavg| %total
---------------------------------------------------------------
Pair    | 0.074425   | 0.077123   | 0.079914   |   0.7 | 37.95
Kspace  | 0.11178    | 0.1134     | 0.1146     |   0.3 | 55.80
Neigh   | 0          | 0          | 0          |   0.0 |  0.00
Comm    | 0.0079329  | 0.01131    | 0.015614   |   2.0 |  5.57
Output  | 0          | 0          | 0          |   0.0 |  0.00
Modify  | 0          | 0          | 0          |   0.0 |  0.00
Other   |            | 0.00139    |            |       |  0.68

Nlocal:    84 ave 88 max 79 min
Histogram: 1 0 1 2 0 3 1 2 1 1
Nghost:    2599.25 ave 2617 max 2573 min
Histogram: 1 0 3 0 1 1 0 2 0 4
Neighs:    18567.1 ave 19506 max 17300 min
Histogram: 1 0 1 1 1 2 2 2 1 1

Total # of neighbors = 222805
Ave neighs/atom = 221.037
Neighbor list builds = 0
Dangerous builds = 0
CR_UPDATE- 23.300680	23.300680	23.300680	0.000000	0.000000	0.000000
For k = 6, applying strain of 1.005
Changing box ...
  triclinic box = (0 -0.0582517 0) to (23.3007 23.3589 23.3007) with tilt (0 0 0)
WARNING: Resetting reneighboring criteria during minimization (../min.cpp:168)
Ewald initialization ...
  G vector (1/distance) = 0.365021
  estimated absolute RMS force accuracy = 1.96704e-05
  estimated relative force accuracy = 1.36604e-06
  KSpace vectors: actual max1d max3d = 2084 10 4630
                  kxmax kymax kzmax  = 10 10 10
Setting up cg style minimization ...
  Unit style: metal
Memory usage per processor = 4.56264 Mbytes
Step Temp E_pair E_mol TotEng Press 
     182           10   -18273.505            0   -18272.204   -17049.115 
     200           10   -18273.647            0   -18272.345   -13698.372 
     209           10    -18273.65            0   -18272.348    -13612.24 
Loop time of 0.270567 on 12 procs for 27 steps with 1008 atoms

100.0% CPU use with 12 MPI tasks x no OpenMP threads

Minimization stats:
  Stopping criterion = linesearch alpha is zero
  Energy initial, next-to-last, final = 
        -18273.5054001     -18273.6499544     -18273.6499544
  Force two-norm initial, final = 1.7132 0.0770818
  Force max component initial, final = 0.161828 0.00665998
  Final line search alpha, max atom move = 1.90735e-06 1.27029e-08
  Iterations, force evaluations = 27 91

MPI task timing breakdown:
Section |  min time  |  avg time  |  max time  |%varavg| %total
---------------------------------------------------------------
Pair    | 0.098313   | 0.1022     | 0.10755    |   0.9 | 37.77
Kspace  | 0.14856    | 0.15092    | 0.15346    |   0.4 | 55.78
Neigh   | 0          | 0          | 0          |   0.0 |  0.00
Comm    | 0.010297   | 0.015591   | 0.020852   |   2.3 |  5.76
Output  | 2.5988e-05 | 2.7537e-05 | 3.7193e-05 |   0.1 |  0.01
Modify  | 0          | 0          | 0          |   0.0 |  0.00
Other   |            | 0.00182    |            |       |  0.67

Nlocal:    84 ave 88 max 79 min
Histogram: 1 0 1 2 0 3 1 2 1 1
Nghost:    2596.75 ave 2613 max 2572 min
Histogram: 1 0 3 0 1 1 0 2 1 3
Neighs:    18534.6 ave 19466 max 17263 min
Histogram: 1 0 1 1 1 2 2 2 1 1

Total # of neighbors = 222415
Ave neighs/atom = 220.65
Neighbor list builds = 0
Dangerous builds = 0
CR_UPDATE- 23.300680	23.300680	23.300680	0.000000	0.000000	0.000000
For k = 0, applying strain of 0.995
Changing box ...
  triclinic box = (0 0 0.0582517) to (23.3007 23.3007 23.2424) with tilt (0 0 0)
WARNING: Resetting reneighboring criteria during minimization (../min.cpp:168)
Ewald initialization ...
  G vector (1/distance) = 0.365089
  estimated absolute RMS force accuracy = 1.92191e-05
  estimated relative force accuracy = 1.33469e-06
  KSpace vectors: actual max1d max3d = 2088 10 4630
                  kxmax kymax kzmax  = 10 10 10
Setting up cg style minimization ...
  Unit style: metal
Memory usage per processor = 4.56264 Mbytes
Step Temp E_pair E_mol TotEng Press 
     209           10   -18274.276            0   -18272.974    3817.7827 
     250           10   -18274.452            0   -18273.151   -374.92859 
     253           10   -18274.453            0   -18273.152   -375.68875 
Loop time of 0.393051 on 12 procs for 44 steps with 1008 atoms

99.9% CPU use with 12 MPI tasks x no OpenMP threads

Minimization stats:
  Stopping criterion = linesearch alpha is zero
  Energy initial, next-to-last, final = 
        -18274.2759088     -18274.4532031     -18274.4532031
  Force two-norm initial, final = 1.8853 0.109447
  Force max component initial, final = 0.152339 0.0108419
  Final line search alpha, max atom move = 9.53674e-07 1.03397e-08
  Iterations, force evaluations = 44 131

MPI task timing breakdown:
Section |  min time  |  avg time  |  max time  |%varavg| %total
---------------------------------------------------------------
Pair    | 0.14393    | 0.1494     | 0.15448    |   0.9 | 38.01
Kspace  | 0.21428    | 0.21777    | 0.22147    |   0.5 | 55.41
Neigh   | 0          | 0          | 0          |   0.0 |  0.00
Comm    | 0.017107   | 0.02313    | 0.032113   |   2.8 |  5.88
Output  | 2.5988e-05 | 2.6564e-05 | 3.2902e-05 |   0.0 |  0.01
Modify  | 0          | 0          | 0          |   0.0 |  0.00
Other   |            | 0.00272    |            |       |  0.69

Nlocal:    84 ave 88 max 79 min
Histogram: 1 0 1 2 0 3 1 2 1 1
Nghost:    2621.83 ave 2639 max 2597 min
Histogram: 2 1 1 1 0 1 0 0 1 5
Neighs:    18725.5 ave 19679 max 17462 min
Histogram: 1 0 1 1 1 2 2 2 1 1

Total # of neighbors = 224706
Ave neighs/atom = 222.923
Neighbor list builds = 0
Dangerous builds = 0
CR_UPDATE- 23.300680	23.300680	23.300680	0.000000	0.000000	0.000000
For k = 1, applying strain of 0.996667
Changing box ...
  triclinic box = (0 0 0.0388306) to (23.3007 23.3007 23.2618) with tilt (0 0 0)
WARNING: Resetting reneighboring criteria during minimization (../min.cpp:168)
Ewald initialization ...
  G vector (1/distance) = 0.365078
  estimated absolute RMS force accuracy = 1.92793e-05
  estimated relative force accuracy = 1.33888e-06
  KSpace vectors: actual max1d max3d = 2084 10 4630
                  kxmax kymax kzmax  = 10 10 10
Setting up cg style minimization ...
  Unit style: metal
Memory usage per processor = 4.56264 Mbytes
Step Temp E_pair E_mol TotEng Press 
     253           10   -18274.377            0   -18273.076    267.14728 
     276           10   -18274.449            0   -18273.147   -2265.5588 
Loop time of 0.369697 on 12 procs for 23 steps with 1008 atoms

100.0% CPU use with 12 MPI tasks x no OpenMP threads

Minimization stats:
  Stopping criterion = linesearch alpha is zero
  Energy initial, next-to-last, final = 
        -18274.3773867     -18274.4487575     -18274.4487575
  Force two-norm initial, final = 1.24919 0.0848811
  Force max component initial, final = 0.100782 0.00557662
  Final line search alpha, max atom move = 9.53674e-07 5.31828e-09
  Iterations, force evaluations = 23 123

MPI task timing breakdown:
Section |  min time  |  avg time  |  max time  |%varavg| %total
---------------------------------------------------------------
Pair    | 0.13413    | 0.14012    | 0.14909    |   1.2 | 37.90
Kspace  | 0.20334    | 0.20665    | 0.21095    |   0.5 | 55.90
Neigh   | 0          | 0          | 0          |   0.0 |  0.00
Comm    | 0.015016   | 0.020672   | 0.029199   |   2.8 |  5.59
Output  | 0          | 0          | 0          |   0.0 |  0.00
Modify  | 0          | 0          | 0          |   0.0 |  0.00
Other   |            | 0.002247   |            |       |  0.61

Nlocal:    84 ave 88 max 79 min
Histogram: 1 0 1 2 0 3 1 2 1 1
Nghost:    2619.83 ave 2637 max 2595 min
Histogram: 2 1 0 2 0 1 0 0 0 6
Neighs:    18694.5 ave 19647 max 17432 min
Histogram: 1 0 1 1 1 2 2 2 1 1

Total # of neighbors = 224334
Ave neighs/atom = 222.554
Neighbor list builds = 0
Dangerous builds = 0
CR_UPDATE- 23.300680	23.300680	23.300680	0.000000	0.000000	0.000000
For k = 2, applying strain of 0.998333
Changing box ...
  triclinic box = (0 0 0.0194211) to (23.3007 23.3007 23.2813) with tilt (0 0 0)
WARNING: Resetting reneighboring criteria during minimization (../min.cpp:168)
Ewald initialization ...
  G vector (1/distance) = 0.365066
  estimated absolute RMS force accuracy = 1.9345e-05
  estimated relative force accuracy = 1.34344e-06
  KSpace vectors: actual max1d max3d = 2084 10 4630
                  kxmax kymax kzmax  = 10 10 10
Setting up cg style minimization ...
  Unit style: metal
Memory usage per processor = 4.56264 Mbytes
Step Temp E_pair E_mol TotEng Press 
     276           10   -18274.401            0   -18273.099   -3245.4745 
     284           10   -18274.416            0   -18273.114   -4297.1485 
Loop time of 0.172927 on 12 procs for 8 steps with 1008 atoms

99.9% CPU use with 12 MPI tasks x no OpenMP threads

Minimization stats:
  Stopping criterion = linesearch alpha is zero
  Energy initial, next-to-last, final = 
        -18274.4005205     -18274.4161096     -18274.4161096
  Force two-norm initial, final = 0.620548 0.143915
  Force max component initial, final = 0.0500168 0.0200348
  Final line search alpha, max atom move = 4.76837e-07 9.55332e-09
  Iterations, force evaluations = 8 57

MPI task timing breakdown:
Section |  min time  |  avg time  |  max time  |%varavg| %total
---------------------------------------------------------------
Pair    | 0.06336    | 0.065529   | 0.069225   |   0.7 | 37.89
Kspace  | 0.094947   | 0.096232   | 0.097737   |   0.3 | 55.65
Neigh   | 0          | 0          | 0          |   0.0 |  0.00
Comm    | 0.0069077  | 0.010059   | 0.013588   |   1.8 |  5.82
Output  | 0          | 0          | 0          |   0.0 |  0.00
Modify  | 0          | 0          | 0          |   0.0 |  0.00
Other   |            | 0.001106   |            |       |  0.64

Nlocal:    84 ave 88 max 79 min
Histogram: 1 0 1 2 0 3 1 2 1 1
Nghost:    2617.08 ave 2636 max 2594 min
Histogram: 3 0 1 1 1 0 0 1 0 5
Neighs:    18664.6 ave 19607 max 17404 min
Histogram: 1 0 1 1 1 2 2 2 1 1

Total # of neighbors = 223975
Ave neighs/atom = 222.197
Neighbor list builds = 0
Dangerous builds = 0
CR_UPDATE- 23.300680	23.300680	23.300680	0.000000	0.000000	0.000000
For k = 3, applying strain of 1
Changing box ...
  triclinic box = (0 0 0) to (23.3007 23.3007 23.3007) with tilt (0 0 0)
WARNING: Resetting reneighboring criteria during minimization (../min.cpp:168)
Ewald initialization ...
  G vector (1/distance) = 0.365055
  estimated absolute RMS force accuracy = 1.94166e-05
  estimated relative force accuracy = 1.34841e-06
  KSpace vectors: actual max1d max3d = 2084 10 4630
                  kxmax kymax kzmax  = 10 10 10
Setting up cg style minimization ...
  Unit style: metal
Memory usage per processor = 4.56264 Mbytes
Step Temp E_pair E_mol TotEng Press 
     284           10    -18274.34            0   -18273.038    -6722.922 
     286           10    -18274.34            0   -18273.038   -6720.6006 
Loop time of 0.0763582 on 12 procs for 2 steps with 1008 atoms

100.0% CPU use with 12 MPI tasks x no OpenMP threads

Minimization stats:
  Stopping criterion = linesearch alpha is zero
  Energy initial, next-to-last, final = 
        -18274.3396557     -18274.3396598     -18274.3396598
  Force two-norm initial, final = 0.00477977 0.00320123
  Force max component initial, final = 0.000372915 0.00031399
  Final line search alpha, max atom move = 0.000976562 3.06631e-07
  Iterations, force evaluations = 2 25

MPI task timing breakdown:
Section |  min time  |  avg time  |  max time  |%varavg| %total
---------------------------------------------------------------
Pair    | 0.027983   | 0.028956   | 0.030219   |   0.4 | 37.92
Kspace  | 0.041859   | 0.042584   | 0.043258   |   0.2 | 55.77
Neigh   | 0          | 0          | 0          |   0.0 |  0.00
Comm    | 0.0030243  | 0.0043498  | 0.006038   |   1.2 |  5.70
Output  | 0          | 0          | 0          |   0.0 |  0.00
Modify  | 0          | 0          | 0          |   0.0 |  0.00
Other   |            | 0.0004682  |            |       |  0.61

Nlocal:    84 ave 88 max 79 min
Histogram: 1 0 1 2 0 3 1 2 1 1
Nghost:    2612.08 ave 2629 max 2587 min
Histogram: 1 2 1 0 1 1 0 0 1 5
Neighs:    18631.8 ave 19573 max 17380 min
Histogram: 1 0 1 1 1 2 2 2 1 1

Total # of neighbors = 223581
Ave neighs/atom = 221.807
Neighbor list builds = 0
Dangerous builds = 0
CR_UPDATE- 23.300680	23.300680	23.300680	0.000000	0.000000	0.000000
For k = 4, applying strain of 1.00167
Changing box ...
  triclinic box = (0 0 -0.0194211) to (23.3007 23.3007 23.3201) with tilt (0 0 0)
WARNING: Resetting reneighboring criteria during minimization (../min.cpp:168)
Ewald initialization ...
  G vector (1/distance) = 0.365044
  estimated absolute RMS force accuracy = 1.94944e-05
  estimated relative force accuracy = 1.35381e-06
  KSpace vectors: actual max1d max3d = 2084 10 4630
                  kxmax kymax kzmax  = 10 10 10
Setting up cg style minimization ...
  Unit style: metal
Memory usage per processor = 4.56264 Mbytes
Step Temp E_pair E_mol TotEng Press 
     286           10   -18274.193            0   -18272.891   -10162.937 
     293           10   -18274.207            0   -18272.905   -9148.5702 
Loop time of 0.16589 on 12 procs for 7 steps with 1008 atoms

99.9% CPU use with 12 MPI tasks x no OpenMP threads

Minimization stats:
  Stopping criterion = linesearch alpha is zero
  Energy initial, next-to-last, final = 
        -18274.1929525     -18274.2070727     -18274.2070727
  Force two-norm initial, final = 0.61667 0.159028
  Force max component initial, final = 0.0490576 0.0165065
  Final line search alpha, max atom move = 4.76837e-07 7.87091e-09
  Iterations, force evaluations = 7 55

MPI task timing breakdown:
Section |  min time  |  avg time  |  max time  |%varavg| %total
---------------------------------------------------------------
Pair    | 0.06075    | 0.063031   | 0.066112   |   0.7 | 38.00
Kspace  | 0.089859   | 0.0921     | 0.094307   |   0.4 | 55.52
Neigh   | 0          | 0          | 0          |   0.0 |  0.00
Comm    | 0.0072272  | 0.0097239  | 0.013584   |   1.8 |  5.86
Output  | 0          | 0          | 0          |   0.0 |  0.00
Modify  | 0          | 0          | 0          |   0.0 |  0.00
Other   |            | 0.001035   |            |       |  0.62

Nlocal:    84 ave 88 max 79 min
Histogram: 1 0 1 2 0 3 1 2 1 1
Nghost:    2609.83 ave 2629 max 2585 min
Histogram: 2 1 1 0 2 0 0 1 2 3
Neighs:    18601.4 ave 19539 max 17339 min
Histogram: 1 0 1 1 1 2 2 2 1 1

Total # of neighbors = 223217
Ave neighs/atom = 221.445
Neighbor list builds = 0
Dangerous builds = 0
CR_UPDATE- 23.300680	23.300680	23.300680	0.000000	0.000000	0.000000
For k = 5, applying strain of 1.00333
Changing box ...
  triclinic box = (0 0 -0.0388306) to (23.3007 23.3007 23.3395) with tilt (0 0 0)
WARNING: Resetting reneighboring criteria during minimization (../min.cpp:168)
Ewald initialization ...
  G vector (1/distance) = 0.365032
  estimated absolute RMS force accuracy = 1.95788e-05
  estimated relative force accuracy = 1.35968e-06
  KSpace vectors: actual max1d max3d = 2084 10 4630
                  kxmax kymax kzmax  = 10 10 10
Setting up cg style minimization ...
  Unit style: metal
Memory usage per processor = 4.56264 Mbytes
Step Temp E_pair E_mol TotEng Press 
     293           10   -18273.966            0   -18272.664   -13564.828 
     300           10   -18274.022            0    -18272.72   -11451.706 
     310           10   -18274.032            0    -18272.73   -11161.554 
Loop time of 0.226256 on 12 procs for 17 steps with 1008 atoms

99.9% CPU use with 12 MPI tasks x no OpenMP threads

Minimization stats:
  Stopping criterion = linesearch alpha is zero
  Energy initial, next-to-last, final = 
        -18273.9656229     -18274.0318187     -18274.0318187
  Force two-norm initial, final = 1.22468 0.122144
  Force max component initial, final = 0.0973411 0.0118002
  Final line search alpha, max atom move = 4.76837e-07 5.62678e-09
  Iterations, force evaluations = 17 75

MPI task timing breakdown:
Section |  min time  |  avg time  |  max time  |%varavg| %total
---------------------------------------------------------------
Pair    | 0.081896   | 0.084987   | 0.089664   |   0.8 | 37.56
Kspace  | 0.12321    | 0.12638    | 0.12877    |   0.4 | 55.86
Neigh   | 0          | 0          | 0          |   0.0 |  0.00
Comm    | 0.0096314  | 0.013406   | 0.018287   |   2.1 |  5.93
Output  | 2.3842e-05 | 2.4597e-05 | 3.2902e-05 |   0.1 |  0.01
Modify  | 0          | 0          | 0          |   0.0 |  0.00
Other   |            | 0.001458   |            |       |  0.64

Nlocal:    84 ave 88 max 79 min
Histogram: 1 0 1 2 0 3 1 2 1 1
Nghost:    2605.58 ave 2626 max 2581 min
Histogram: 2 0 2 1 1 0 0 1 2 3
Neighs:    18571.2 ave 19503 max 17309 min
Histogram: 1 0 1 1 1 2 2 2 1 1

Total # of neighbors = 222855
Ave neighs/atom = 221.086
Neighbor list builds = 0
Dangerous builds = 0
CR_UPDATE- 23.300680	23.300680	23.300680	0.000000	0.000000	0.000000
For k = 6, applying strain of 1.005
Changing box ...
  triclinic box = (0 0 -0.0582517) to (23.3007 23.3007 23.3589) with tilt (0 0 0)
WARNING: Resetting reneighboring criteria during minimization (../min.cpp:168)
Ewald initialization ...
  G vector (1/distance) = 0.365021
  estimated absolute RMS force accuracy = 1.96704e-05
  estimated relative force accuracy = 1.36604e-06
  KSpace vectors: actual max1d max3d = 2084 10 4630
                  kxmax kymax kzmax  = 10 10 10
Setting up cg style minimization ...
  Unit style: metal
Memory usage per processor = 4.56264 Mbytes
Step Temp E_pair E_mol TotEng Press 
     310           10   -18273.658            0   -18272.356    -16932.86 
     328           10   -18273.808            0   -18272.506   -13329.959 
Loop time of 0.236117 on 12 procs for 18 steps with 1008 atoms

99.8% CPU use with 12 MPI tasks x no OpenMP threads

Minimization stats:
  Stopping criterion = linesearch alpha is zero
  Energy initial, next-to-last, final = 
        -18273.6576087     -18273.8079961     -18273.8079961
  Force two-norm initial, final = 1.8264 0.168443
  Force max component initial, final = 0.144876 0.0163223
  Final line search alpha, max atom move = 2.38419e-07 3.89154e-09
  Iterations, force evaluations = 18 79

MPI task timing breakdown:
Section |  min time  |  avg time  |  max time  |%varavg| %total
---------------------------------------------------------------
Pair    | 0.085788   | 0.089619   | 0.093479   |   0.9 | 37.96
Kspace  | 0.12857    | 0.13136    | 0.13449    |   0.5 | 55.63
Neigh   | 0          | 0          | 0          |   0.0 |  0.00
Comm    | 0.0098748  | 0.013626   | 0.018912   |   2.2 |  5.77
Output  | 0          | 0          | 0          |   0.0 |  0.00
Modify  | 0          | 0          | 0          |   0.0 |  0.00
Other   |            | 0.001512   |            |       |  0.64

Nlocal:    84 ave 88 max 79 min
Histogram: 1 0 1 2 0 3 1 2 1 1
Nghost:    2603.33 ave 2624 max 2580 min
Histogram: 2 1 1 1 1 0 0 3 0 3
Neighs:    18538.8 ave 19468 max 17278 min
Histogram: 1 0 1 1 1 2 2 2 1 1

Total # of neighbors = 222465
Ave neighs/atom = 220.699
Neighbor list builds = 0
Dangerous builds = 0
CR_UPDATE- 23.300680	23.300680	23.300680	0.000000	0.000000	0.000000
For k = 0, applying strain of 0.995
Changing box ...
  triclinic box = (0 0 0) to (23.3007 23.3007 23.3007) with tilt (-0.116503 0 0)
WARNING: Resetting reneighboring criteria during minimization (../min.cpp:168)
Ewald initialization ...
  G vector (1/distance) = 0.365055
  estimated absolute RMS force accuracy = 1.94166e-05
  estimated relative force accuracy = 1.34841e-06
  KSpace vectors: actual max1d max3d = 2079 10 4630
                  kxmax kymax kzmax  = 10 10 10
Setting up cg style minimization ...
  Unit style: metal
Memory usage per processor = 4.56264 Mbytes
Step Temp E_pair E_mol TotEng Press 
     328           10   -18274.099            0   -18272.798   -6687.9902 
     339           10   -18274.158            0   -18272.856   -6648.8173 
Loop time of 0.194023 on 12 procs for 11 steps with 1008 atoms

99.9% CPU use with 12 MPI tasks x no OpenMP threads

Minimization stats:
  Stopping criterion = linesearch alpha is zero
  Energy initial, next-to-last, final = 
        -18274.0993036     -18274.1578427     -18274.1578427
  Force two-norm initial, final = 1.22749 0.192653
  Force max component initial, final = 0.125709 0.0196693
  Final line search alpha, max atom move = 2.38419e-07 4.68953e-09
  Iterations, force evaluations = 11 65

MPI task timing breakdown:
Section |  min time  |  avg time  |  max time  |%varavg| %total
---------------------------------------------------------------
Pair    | 0.071638   | 0.073835   | 0.076211   |   0.6 | 38.05
Kspace  | 0.10485    | 0.10789    | 0.11037    |   0.4 | 55.61
Neigh   | 0          | 0          | 0          |   0.0 |  0.00
Comm    | 0.0079453  | 0.011087   | 0.015903   |   2.1 |  5.71
Output  | 0          | 0          | 0          |   0.0 |  0.00
Modify  | 0          | 0          | 0          |   0.0 |  0.00
Other   |            | 0.001206   |            |       |  0.62

Nlocal:    84 ave 88 max 79 min
Histogram: 1 0 1 2 0 3 1 2 1 1
Nghost:    2612.08 ave 2629 max 2587 min
Histogram: 1 2 1 0 1 1 0 0 1 5
Neighs:    18631.2 ave 19584 max 17380 min
Histogram: 1 0 1 1 1 2 2 2 1 1

Total # of neighbors = 223574
Ave neighs/atom = 221.8
Neighbor list builds = 0
Dangerous builds = 0
CR_UPDATE- 23.300680	23.300680	23.300680	0.000000	0.000000	0.000000
For k = 1, applying strain of 0.996667
Changing box ...
  triclinic box = (0 0 0) to (23.3007 23.3007 23.3007) with tilt (-0.077661 0 0)
WARNING: Resetting reneighboring criteria during minimization (../min.cpp:168)
Ewald initialization ...
  G vector (1/distance) = 0.365055
  estimated absolute RMS force accuracy = 1.94166e-05
  estimated relative force accuracy = 1.34841e-06
  KSpace vectors: actual max1d max3d = 2081 10 4630
                  kxmax kymax kzmax  = 10 10 10
Setting up cg style minimization ...
  Unit style: metal
Memory usage per processor = 4.56264 Mbytes
Step Temp E_pair E_mol TotEng Press 
     339           10   -18274.208            0   -18272.906   -6704.4515 
     350           10   -18274.234            0   -18272.932   -6670.4748 
     353           10   -18274.235            0   -18272.933   -6672.8388 
Loop time of 0.203123 on 12 procs for 14 steps with 1008 atoms

99.8% CPU use with 12 MPI tasks x no OpenMP threads

Minimization stats:
  Stopping criterion = linesearch alpha is zero
  Energy initial, next-to-last, final = 
        -18274.2080453     -18274.2347047     -18274.2347047
  Force two-norm initial, final = 0.818205 0.0980208
  Force max component initial, final = 0.083706 0.0116727
  Final line search alpha, max atom move = 9.53674e-07 1.11319e-08
  Iterations, force evaluations = 14 67

MPI task timing breakdown:
Section |  min time  |  avg time  |  max time  |%varavg| %total
---------------------------------------------------------------
Pair    | 0.073645   | 0.076687   | 0.080841   |   0.8 | 37.75
Kspace  | 0.11158    | 0.11322    | 0.11606    |   0.4 | 55.74
Neigh   | 0          | 0          | 0          |   0.0 |  0.00
Comm    | 0.0087745  | 0.011854   | 0.016583   |   2.0 |  5.84
Output  | 2.408e-05  | 2.4915e-05 | 3.314e-05  |   0.0 |  0.01
Modify  | 0          | 0          | 0          |   0.0 |  0.00
Other   |            | 0.001339   |            |       |  0.66

Nlocal:    84 ave 88 max 79 min
Histogram: 1 0 1 2 0 3 1 2 1 1
Nghost:    2612.08 ave 2629 max 2587 min
Histogram: 1 2 1 0 1 1 0 0 1 5
Neighs:    18629.8 ave 19578 max 17374 min
Histogram: 1 0 1 1 1 2 2 2 1 1

Total # of neighbors = 223558
Ave neighs/atom = 221.784
Neighbor list builds = 0
Dangerous builds = 0
CR_UPDATE- 23.300680	23.300680	23.300680	0.000000	0.000000	0.000000
For k = 2, applying strain of 0.998333
Changing box ...
  triclinic box = (0 0 0) to (23.3007 23.3007 23.3007) with tilt (-0.038842 0 0)
WARNING: Resetting reneighboring criteria during minimization (../min.cpp:168)
Ewald initialization ...
  G vector (1/distance) = 0.365055
  estimated absolute RMS force accuracy = 1.94166e-05
  estimated relative force accuracy = 1.34841e-06
  KSpace vectors: actual max1d max3d = 2082 10 4630
                  kxmax kymax kzmax  = 10 10 10
Setting up cg style minimization ...
  Unit style: metal
Memory usage per processor = 4.56264 Mbytes
Step Temp E_pair E_mol TotEng Press 
     353           10   -18274.287            0   -18272.985    -6715.827 
     360           10   -18274.294            0   -18272.992   -6692.4001 
Loop time of 0.162145 on 12 procs for 7 steps with 1008 atoms

99.9% CPU use with 12 MPI tasks x no OpenMP threads

Minimization stats:
  Stopping criterion = linesearch alpha is zero
  Energy initial, next-to-last, final = 
        -18274.2871276     -18274.2937721     -18274.2937721
  Force two-norm initial, final = 0.40928 0.0982138
  Force max component initial, final = 0.0418417 0.01266
  Final line search alpha, max atom move = 9.53674e-07 1.20735e-08
  Iterations, force evaluations = 7 53

MPI task timing breakdown:
Section |  min time  |  avg time  |  max time  |%varavg| %total
---------------------------------------------------------------
Pair    | 0.058448   | 0.060972   | 0.065292   |   0.8 | 37.60
Kspace  | 0.089585   | 0.090913   | 0.092217   |   0.3 | 56.07
Neigh   | 0          | 0          | 0          |   0.0 |  0.00
Comm    | 0.0064349  | 0.0093202  | 0.01269    |   1.8 |  5.75
Output  | 0          | 0          | 0          |   0.0 |  0.00
Modify  | 0          | 0          | 0          |   0.0 |  0.00
Other   |            | 0.0009392  |            |       |  0.58

Nlocal:    84 ave 88 max 79 min
Histogram: 1 0 1 2 0 3 1 2 1 1
Nghost:    2612.08 ave 2629 max 2587 min
Histogram: 1 2 1 0 1 1 0 0 1 5
Neighs:    18631.6 ave 19574 max 17377 min
Histogram: 1 0 1 1 1 2 2 2 1 1

Total # of neighbors = 223579
Ave neighs/atom = 221.805
Neighbor list builds = 0
Dangerous builds = 0
CR_UPDATE- 23.300680	23.300680	23.300680	0.000000	0.000000	0.000000
For k = 3, applying strain of 1
Changing box ...
  triclinic box = (0 0 0) to (23.3007 23.3007 23.3007) with tilt (0 0 0)
WARNING: Resetting reneighboring criteria during minimization (../min.cpp:168)
Ewald initialization ...
  G vector (1/distance) = 0.365055
  estimated absolute RMS force accuracy = 1.94166e-05
  estimated relative force accuracy = 1.34841e-06
  KSpace vectors: actual max1d max3d = 2084 10 4630
                  kxmax kymax kzmax  = 10 10 10
Setting up cg style minimization ...
  Unit style: metal
Memory usage per processor = 4.56264 Mbytes
Step Temp E_pair E_mol TotEng Press 
     360           10    -18274.34            0   -18273.038    -6722.922 
     362           10    -18274.34            0   -18273.038   -6720.6006 
Loop time of 0.076624 on 12 procs for 2 steps with 1008 atoms

100.3% CPU use with 12 MPI tasks x no OpenMP threads

Minimization stats:
  Stopping criterion = linesearch alpha is zero
  Energy initial, next-to-last, final = 
        -18274.3396557     -18274.3396598     -18274.3396598
  Force two-norm initial, final = 0.00477977 0.00320123
  Force max component initial, final = 0.000372915 0.00031399
  Final line search alpha, max atom move = 0.000976562 3.06631e-07
  Iterations, force evaluations = 2 25

MPI task timing breakdown:
Section |  min time  |  avg time  |  max time  |%varavg| %total
---------------------------------------------------------------
Pair    | 0.027987   | 0.029174   | 0.030118   |   0.5 | 38.07
Kspace  | 0.041558   | 0.042707   | 0.043344   |   0.2 | 55.74
Neigh   | 0          | 0          | 0          |   0.0 |  0.00
Comm    | 0.003021   | 0.0042772  | 0.0061965  |   1.3 |  5.58
Output  | 0          | 0          | 0          |   0.0 |  0.00
Modify  | 0          | 0          | 0          |   0.0 |  0.00
Other   |            | 0.0004665  |            |       |  0.61

Nlocal:    84 ave 88 max 79 min
Histogram: 1 0 1 2 0 3 1 2 1 1
Nghost:    2612.08 ave 2629 max 2587 min
Histogram: 1 2 1 0 1 1 0 0 1 5
Neighs:    18631.8 ave 19573 max 17380 min
Histogram: 1 0 1 1 1 2 2 2 1 1

Total # of neighbors = 223581
Ave neighs/atom = 221.807
Neighbor list builds = 0
Dangerous builds = 0
CR_UPDATE- 23.300680	23.300680	23.300680	0.000000	0.000000	0.000000
For k = 4, applying strain of 1.00167
Changing box ...
  triclinic box = (0 0 0) to (23.3007 23.3007 23.3007) with tilt (0.038842 0 0)
WARNING: Resetting reneighboring criteria during minimization (../min.cpp:168)
Ewald initialization ...
  G vector (1/distance) = 0.365055
  estimated absolute RMS force accuracy = 1.94166e-05
  estimated relative force accuracy = 1.34841e-06
  KSpace vectors: actual max1d max3d = 2082 10 4630
                  kxmax kymax kzmax  = 10 10 10
Setting up cg style minimization ...
  Unit style: metal
Memory usage per processor = 4.56264 Mbytes
Step Temp E_pair E_mol TotEng Press 
     362           10   -18274.362            0    -18273.06   -6724.7603 
     370           10   -18274.367            0   -18273.065   -6735.1172 
Loop time of 0.27474 on 12 procs for 8 steps with 1008 atoms

99.9% CPU use with 12 MPI tasks x no OpenMP threads

Minimization stats:
  Stopping criterion = linesearch alpha is zero
  Energy initial, next-to-last, final = 
        -18274.3616542     -18274.3668191     -18274.3668191
  Force two-norm initial, final = 0.409034 0.0884854
  Force max component initial, final = 0.0416288 0.010395
  Final line search alpha, max atom move = 9.53674e-07 9.91343e-09
  Iterations, force evaluations = 8 91

MPI task timing breakdown:
Section |  min time  |  avg time  |  max time  |%varavg| %total
---------------------------------------------------------------
Pair    | 0.099817   | 0.10403    | 0.11115    |   1.0 | 37.86
Kspace  | 0.15121    | 0.15359    | 0.15591    |   0.4 | 55.90
Neigh   | 0          | 0          | 0          |   0.0 |  0.00
Comm    | 0.010945   | 0.015523   | 0.021382   |   2.3 |  5.65
Output  | 0          | 0          | 0          |   0.0 |  0.00
Modify  | 0          | 0          | 0          |   0.0 |  0.00
Other   |            | 0.0016     |            |       |  0.58

Nlocal:    84 ave 88 max 79 min
Histogram: 1 0 1 2 0 3 1 2 1 1
Nghost:    2612.08 ave 2629 max 2587 min
Histogram: 1 2 1 0 1 1 0 0 1 5
Neighs:    18632.1 ave 19564 max 17377 min
Histogram: 1 0 1 1 1 2 2 2 1 1

Total # of neighbors = 223585
Ave neighs/atom = 221.811
Neighbor list builds = 0
Dangerous builds = 0
CR_UPDATE- 23.300680	23.300680	23.300680	0.000000	0.000000	0.000000
For k = 5, applying strain of 1.00333
Changing box ...
  triclinic box = (0 0 0) to (23.3007 23.3007 23.3007) with tilt (0.077661 0 0)
WARNING: Resetting reneighboring criteria during minimization (../min.cpp:168)
Ewald initialization ...
  G vector (1/distance) = 0.365055
  estimated absolute RMS force accuracy = 1.94166e-05
  estimated relative force accuracy = 1.34841e-06
  KSpace vectors: actual max1d max3d = 2081 10 4630
                  kxmax kymax kzmax  = 10 10 10
Setting up cg style minimization ...
  Unit style: metal
Memory usage per processor = 4.56264 Mbytes
Step Temp E_pair E_mol TotEng Press 
     370           10   -18274.357            0   -18273.056   -6722.4042 
     387           10   -18274.385            0   -18273.083   -6758.1414 
Loop time of 0.215251 on 12 procs for 17 steps with 1008 atoms

100.1% CPU use with 12 MPI tasks x no OpenMP threads

Minimization stats:
  Stopping criterion = linesearch alpha is zero
  Energy initial, next-to-last, final = 
        -18274.3574714     -18274.3846284     -18274.3846284
  Force two-norm initial, final = 0.817867 0.0804891
  Force max component initial, final = 0.0831843 0.00864981
  Final line search alpha, max atom move = 1.90735e-06 1.64982e-08
  Iterations, force evaluations = 17 71

MPI task timing breakdown:
Section |  min time  |  avg time  |  max time  |%varavg| %total
---------------------------------------------------------------
Pair    | 0.077989   | 0.081414   | 0.086221   |   0.9 | 37.82
Kspace  | 0.11781    | 0.11996    | 0.12253    |   0.4 | 55.73
Neigh   | 0          | 0          | 0          |   0.0 |  0.00
Comm    | 0.0088964  | 0.012469   | 0.01709    |   2.0 |  5.79
Output  | 0          | 0          | 0          |   0.0 |  0.00
Modify  | 0          | 0          | 0          |   0.0 |  0.00
Other   |            | 0.001406   |            |       |  0.65

Nlocal:    84 ave 88 max 79 min
Histogram: 1 0 1 2 0 3 1 2 1 1
Nghost:    2612.08 ave 2629 max 2587 min
Histogram: 1 2 1 0 1 1 0 0 1 5
Neighs:    18631 ave 19562 max 17366 min
Histogram: 1 0 1 1 1 2 2 2 1 1

Total # of neighbors = 223572
Ave neighs/atom = 221.798
Neighbor list builds = 0
Dangerous builds = 0
CR_UPDATE- 23.300680	23.300680	23.300680	0.000000	0.000000	0.000000
For k = 6, applying strain of 1.005
Changing box ...
  triclinic box = (0 0 0) to (23.3007 23.3007 23.3007) with tilt (0.116503 0 0)
WARNING: Resetting reneighboring criteria during minimization (../min.cpp:168)
Ewald initialization ...
  G vector (1/distance) = 0.365055
  estimated absolute RMS force accuracy = 1.94166e-05
  estimated relative force accuracy = 1.34841e-06
  KSpace vectors: actual max1d max3d = 2079 10 4630
                  kxmax kymax kzmax  = 10 10 10
Setting up cg style minimization ...
  Unit style: metal
Memory usage per processor = 4.56264 Mbytes
Step Temp E_pair E_mol TotEng Press 
     387           10   -18274.326            0   -18273.024   -6715.5375 
     400           10   -18274.383            0   -18273.082   -6769.5662 
     406           10   -18274.387            0   -18273.085   -6783.8195 
Loop time of 0.237623 on 12 procs for 19 steps with 1008 atoms

99.7% CPU use with 12 MPI tasks x no OpenMP threads

Minimization stats:
  Stopping criterion = linesearch alpha is zero
  Energy initial, next-to-last, final = 
        -18274.3256888     -18274.3867493     -18274.3867493
  Force two-norm initial, final = 1.22691 0.107931
  Force max component initial, final = 0.124653 0.00856572
  Final line search alpha, max atom move = 9.53674e-07 8.16891e-09
  Iterations, force evaluations = 19 79

MPI task timing breakdown:
Section |  min time  |  avg time  |  max time  |%varavg| %total
---------------------------------------------------------------
Pair    | 0.086427   | 0.090198   | 0.094647   |   0.9 | 37.96
Kspace  | 0.1293     | 0.13194    | 0.13386    |   0.4 | 55.53
Neigh   | 0          | 0          | 0          |   0.0 |  0.00
Comm    | 0.0095782  | 0.013861   | 0.018756   |   2.1 |  5.83
Output  | 2.5034e-05 | 2.6564e-05 | 3.4809e-05 |   0.0 |  0.01
Modify  | 0          | 0          | 0          |   0.0 |  0.00
Other   |            | 0.001595   |            |       |  0.67

Nlocal:    84 ave 88 max 79 min
Histogram: 1 0 1 2 0 3 1 2 1 1
Nghost:    2612.08 ave 2629 max 2587 min
Histogram: 1 2 1 0 1 1 0 0 1 5
Neighs:    18634.2 ave 19566 max 17367 min
Histogram: 1 0 1 1 1 2 2 2 1 1

Total # of neighbors = 223610
Ave neighs/atom = 221.835
Neighbor list builds = 0
Dangerous builds = 0
CR_UPDATE- 23.300680	23.300680	23.300680	0.000000	0.000000	0.000000
For k = 0, applying strain of 0.995
Changing box ...
  triclinic box = (0 0 0) to (23.3007 23.3007 23.3007) with tilt (0 -0.116503 0)
WARNING: Resetting reneighboring criteria during minimization (../min.cpp:168)
Ewald initialization ...
  G vector (1/distance) = 0.365055
  estimated absolute RMS force accuracy = 1.94166e-05
  estimated relative force accuracy = 1.34841e-06
  KSpace vectors: actual max1d max3d = 2079 10 4630
                  kxmax kymax kzmax  = 10 10 10
Setting up cg style minimization ...
  Unit style: metal
Memory usage per processor = 4.56264 Mbytes
Step Temp E_pair E_mol TotEng Press 
     406           10   -18274.167            0   -18272.866   -6644.3534 
     419           10   -18274.222            0    -18272.92   -6720.3187 
Loop time of 0.201126 on 12 procs for 13 steps with 1008 atoms

99.9% CPU use with 12 MPI tasks x no OpenMP threads

Minimization stats:
  Stopping criterion = linesearch alpha is zero
  Energy initial, next-to-last, final = 
        -18274.1674748     -18274.2219488     -18274.2219488
  Force two-norm initial, final = 1.23982 0.131454
  Force max component initial, final = 0.113444 0.0113451
  Final line search alpha, max atom move = 4.76837e-07 5.40975e-09
  Iterations, force evaluations = 13 67

MPI task timing breakdown:
Section |  min time  |  avg time  |  max time  |%varavg| %total
---------------------------------------------------------------
Pair    | 0.073555   | 0.076347   | 0.079375   |   0.7 | 37.96
Kspace  | 0.10979    | 0.11164    | 0.11407    |   0.3 | 55.51
Neigh   | 0          | 0          | 0          |   0.0 |  0.00
Comm    | 0.0085311  | 0.011868   | 0.016239   |   2.0 |  5.90
Output  | 0          | 0          | 0          |   0.0 |  0.00
Modify  | 0          | 0          | 0          |   0.0 |  0.00
Other   |            | 0.001273   |            |       |  0.63

Nlocal:    84 ave 88 max 79 min
Histogram: 1 0 1 2 0 3 1 2 1 1
Nghost:    2612.08 ave 2629 max 2587 min
Histogram: 1 2 1 0 1 1 0 0 1 5
Neighs:    18631.4 ave 19575 max 17380 min
Histogram: 1 0 1 1 1 2 2 2 1 1

Total # of neighbors = 223577
Ave neighs/atom = 221.803
Neighbor list builds = 0
Dangerous builds = 0
CR_UPDATE- 23.300680	23.300680	23.300680	0.000000	0.000000	0.000000
For k = 1, applying strain of 0.996667
Changing box ...
  triclinic box = (0 0 0) to (23.3007 23.3007 23.3007) with tilt (0 -0.077661 0)
WARNING: Resetting reneighboring criteria during minimization (../min.cpp:168)
Ewald initialization ...
  G vector (1/distance) = 0.365055
  estimated absolute RMS force accuracy = 1.94166e-05
  estimated relative force accuracy = 1.34841e-06
  KSpace vectors: actual max1d max3d = 2081 10 4630
                  kxmax kymax kzmax  = 10 10 10
Setting up cg style minimization ...
  Unit style: metal
Memory usage per processor = 4.56264 Mbytes
Step Temp E_pair E_mol TotEng Press 
     419           10    -18274.25            0   -18272.949   -6674.9808 
     430           10   -18274.275            0   -18272.974   -6719.2386 
Loop time of 0.183483 on 12 procs for 11 steps with 1008 atoms

99.9% CPU use with 12 MPI tasks x no OpenMP threads

Minimization stats:
  Stopping criterion = linesearch alpha is zero
  Energy initial, next-to-last, final = 
        -18274.2504508     -18274.2751589     -18274.2751589
  Force two-norm initial, final = 0.826602 0.110656
  Force max component initial, final = 0.0756703 0.0111594
  Final line search alpha, max atom move = 9.53674e-07 1.06424e-08
  Iterations, force evaluations = 11 61

MPI task timing breakdown:
Section |  min time  |  avg time  |  max time  |%varavg| %total
---------------------------------------------------------------
Pair    | 0.066771   | 0.069632   | 0.073275   |   0.7 | 37.95
Kspace  | 0.099991   | 0.1023     | 0.10409    |   0.4 | 55.75
Neigh   | 0          | 0          | 0          |   0.0 |  0.00
Comm    | 0.0072904  | 0.010393   | 0.014287   |   1.9 |  5.66
Output  | 0          | 0          | 0          |   0.0 |  0.00
Modify  | 0          | 0          | 0          |   0.0 |  0.00
Other   |            | 0.001159   |            |       |  0.63

Nlocal:    84 ave 88 max 79 min
Histogram: 1 0 1 2 0 3 1 2 1 1
Nghost:    2612.08 ave 2629 max 2587 min
Histogram: 1 2 1 0 1 1 0 0 1 5
Neighs:    18632.6 ave 19575 max 17379 min
Histogram: 1 0 1 1 1 2 2 2 1 1

Total # of neighbors = 223591
Ave neighs/atom = 221.816
Neighbor list builds = 0
Dangerous builds = 0
CR_UPDATE- 23.300680	23.300680	23.300680	0.000000	0.000000	0.000000
For k = 2, applying strain of 0.998333
Changing box ...
  triclinic box = (0 0 0) to (23.3007 23.3007 23.3007) with tilt (0 -0.038842 0)
WARNING: Resetting reneighboring criteria during minimization (../min.cpp:168)
Ewald initialization ...
  G vector (1/distance) = 0.365055
  estimated absolute RMS force accuracy = 1.94166e-05
  estimated relative force accuracy = 1.34841e-06
  KSpace vectors: actual max1d max3d = 2082 10 4630
                  kxmax kymax kzmax  = 10 10 10
Setting up cg style minimization ...
  Unit style: metal
Memory usage per processor = 4.56264 Mbytes
Step Temp E_pair E_mol TotEng Press 
     430           10   -18274.309            0   -18273.007   -6701.3153 
     439           10   -18274.314            0   -18273.012   -6712.2827 
Loop time of 0.266444 on 12 procs for 9 steps with 1008 atoms

99.7% CPU use with 12 MPI tasks x no OpenMP threads

Minimization stats:
  Stopping criterion = linesearch alpha is zero
  Energy initial, next-to-last, final = 
        -18274.3085481     -18274.3138128     -18274.3138128
  Force two-norm initial, final = 0.413528 0.0711881
  Force max component initial, final = 0.0378732 0.00787049
  Final line search alpha, max atom move = 1.90735e-06 1.50118e-08
  Iterations, force evaluations = 9 89

MPI task timing breakdown:
Section |  min time  |  avg time  |  max time  |%varavg| %total
---------------------------------------------------------------
Pair    | 0.096678   | 0.10078    | 0.10623    |   0.9 | 37.82
Kspace  | 0.14728    | 0.14888    | 0.15097    |   0.3 | 55.88
Neigh   | 0          | 0          | 0          |   0.0 |  0.00
Comm    | 0.010885   | 0.015256   | 0.021053   |   2.3 |  5.73
Output  | 0          | 0          | 0          |   0.0 |  0.00
Modify  | 0          | 0          | 0          |   0.0 |  0.00
Other   |            | 0.001536   |            |       |  0.58

Nlocal:    84 ave 88 max 79 min
Histogram: 1 0 1 2 0 3 1 2 1 1
Nghost:    2612.08 ave 2629 max 2587 min
Histogram: 1 2 1 0 1 1 0 0 1 5
Neighs:    18632.5 ave 19576 max 17381 min
Histogram: 1 0 1 1 1 2 2 2 1 1

Total # of neighbors = 223590
Ave neighs/atom = 221.815
Neighbor list builds = 0
Dangerous builds = 0
CR_UPDATE- 23.300680	23.300680	23.300680	0.000000	0.000000	0.000000
For k = 3, applying strain of 1
Changing box ...
  triclinic box = (0 0 0) to (23.3007 23.3007 23.3007) with tilt (0 0 0)
WARNING: Resetting reneighboring criteria during minimization (../min.cpp:168)
Ewald initialization ...
  G vector (1/distance) = 0.365055
  estimated absolute RMS force accuracy = 1.94166e-05
  estimated relative force accuracy = 1.34841e-06
  KSpace vectors: actual max1d max3d = 2084 10 4630
                  kxmax kymax kzmax  = 10 10 10
Setting up cg style minimization ...
  Unit style: metal
Memory usage per processor = 4.56264 Mbytes
Step Temp E_pair E_mol TotEng Press 
     439           10    -18274.34            0   -18273.038    -6722.922 
     441           10    -18274.34            0   -18273.038   -6720.6006 
Loop time of 0.0773654 on 12 procs for 2 steps with 1008 atoms

100.1% CPU use with 12 MPI tasks x no OpenMP threads

Minimization stats:
  Stopping criterion = linesearch alpha is zero
  Energy initial, next-to-last, final = 
        -18274.3396557     -18274.3396598     -18274.3396598
  Force two-norm initial, final = 0.00477977 0.00320123
  Force max component initial, final = 0.000372915 0.00031399
  Final line search alpha, max atom move = 0.000976562 3.06631e-07
  Iterations, force evaluations = 2 25

MPI task timing breakdown:
Section |  min time  |  avg time  |  max time  |%varavg| %total
---------------------------------------------------------------
Pair    | 0.027982   | 0.029317   | 0.03101    |   0.5 | 37.89
Kspace  | 0.042436   | 0.043101   | 0.043803   |   0.2 | 55.71
Neigh   | 0          | 0          | 0          |   0.0 |  0.00
Comm    | 0.0031376  | 0.0044683  | 0.0061347  |   1.2 |  5.78
Output  | 0          | 0          | 0          |   0.0 |  0.00
Modify  | 0          | 0          | 0          |   0.0 |  0.00
Other   |            | 0.0004792  |            |       |  0.62

Nlocal:    84 ave 88 max 79 min
Histogram: 1 0 1 2 0 3 1 2 1 1
Nghost:    2612.08 ave 2629 max 2587 min
Histogram: 1 2 1 0 1 1 0 0 1 5
Neighs:    18631.8 ave 19573 max 17380 min
Histogram: 1 0 1 1 1 2 2 2 1 1

Total # of neighbors = 223581
Ave neighs/atom = 221.807
Neighbor list builds = 0
Dangerous builds = 0
CR_UPDATE- 23.300680	23.300680	23.300680	0.000000	0.000000	0.000000
For k = 4, applying strain of 1.00167
Changing box ...
  triclinic box = (0 0 0) to (23.3007 23.3007 23.3007) with tilt (0 0.038842 0)
WARNING: Resetting reneighboring criteria during minimization (../min.cpp:168)
Ewald initialization ...
  G vector (1/distance) = 0.365055
  estimated absolute RMS force accuracy = 1.94166e-05
  estimated relative force accuracy = 1.34841e-06
  KSpace vectors: actual max1d max3d = 2082 10 4630
                  kxmax kymax kzmax  = 10 10 10
Setting up cg style minimization ...
  Unit style: metal
Memory usage per processor = 4.56264 Mbytes
Step Temp E_pair E_mol TotEng Press 
     441           10   -18274.341            0   -18273.039   -6738.9596 
     445           10   -18274.345            0   -18273.043   -6716.8502 
Loop time of 0.14782 on 12 procs for 4 steps with 1008 atoms

99.9% CPU use with 12 MPI tasks x no OpenMP threads

Minimization stats:
  Stopping criterion = linesearch alpha is zero
  Energy initial, next-to-last, final = 
         -18274.340602     -18274.3448325     -18274.3448325
  Force two-norm initial, final = 0.413463 0.151306
  Force max component initial, final = 0.0379167 0.0191777
  Final line search alpha, max atom move = 4.76837e-07 9.14465e-09
  Iterations, force evaluations = 4 49

MPI task timing breakdown:
Section |  min time  |  avg time  |  max time  |%varavg| %total
---------------------------------------------------------------
Pair    | 0.053615   | 0.056055   | 0.0588     |   0.7 | 37.92
Kspace  | 0.080243   | 0.082382   | 0.083794   |   0.4 | 55.73
Neigh   | 0          | 0          | 0          |   0.0 |  0.00
Comm    | 0.0062444  | 0.0085113  | 0.011895   |   1.7 |  5.76
Output  | 0          | 0          | 0          |   0.0 |  0.00
Modify  | 0          | 0          | 0          |   0.0 |  0.00
Other   |            | 0.0008717  |            |       |  0.59

Nlocal:    84 ave 88 max 79 min
Histogram: 1 0 1 2 0 3 1 2 1 1
Nghost:    2612.08 ave 2629 max 2587 min
Histogram: 1 2 1 0 1 1 0 0 1 5
Neighs:    18631.8 ave 19574 max 17376 min
Histogram: 1 0 1 1 1 2 2 2 1 1

Total # of neighbors = 223581
Ave neighs/atom = 221.807
Neighbor list builds = 0
Dangerous builds = 0
CR_UPDATE- 23.300680	23.300680	23.300680	0.000000	0.000000	0.000000
For k = 5, applying strain of 1.00333
Changing box ...
  triclinic box = (0 0 0) to (23.3007 23.3007 23.3007) with tilt (0 0.077661 0)
WARNING: Resetting reneighboring criteria during minimization (../min.cpp:168)
Ewald initialization ...
  G vector (1/distance) = 0.365055
  estimated absolute RMS force accuracy = 1.94166e-05
  estimated relative force accuracy = 1.34841e-06
  KSpace vectors: actual max1d max3d = 2081 10 4630
                  kxmax kymax kzmax  = 10 10 10
Setting up cg style minimization ...
  Unit style: metal
Memory usage per processor = 4.56264 Mbytes
Step Temp E_pair E_mol TotEng Press 
     445           10   -18274.314            0   -18273.012   -6750.0064 
     450           10   -18274.334            0   -18273.032   -6735.2718 
     454           10   -18274.336            0   -18273.035   -6712.4362 
Loop time of 0.177196 on 12 procs for 9 steps with 1008 atoms

100.0% CPU use with 12 MPI tasks x no OpenMP threads

Minimization stats:
  Stopping criterion = linesearch alpha is zero
  Energy initial, next-to-last, final = 
        -18274.3136724     -18274.3361916     -18274.3361916
  Force two-norm initial, final = 0.826875 0.142262
  Force max component initial, final = 0.0758711 0.0152193
  Final line search alpha, max atom move = 4.76837e-07 7.25712e-09
  Iterations, force evaluations = 9 59

MPI task timing breakdown:
Section |  min time  |  avg time  |  max time  |%varavg| %total
---------------------------------------------------------------
Pair    | 0.064055   | 0.067207   | 0.070226   |   0.7 | 37.93
Kspace  | 0.096215   | 0.098444   | 0.10057    |   0.4 | 55.56
Neigh   | 0          | 0          | 0          |   0.0 |  0.00
Comm    | 0.0075438  | 0.01039    | 0.014339   |   1.9 |  5.86
Output  | 2.408e-05  | 2.5312e-05 | 3.314e-05  |   0.0 |  0.01
Modify  | 0          | 0          | 0          |   0.0 |  0.00
Other   |            | 0.00113    |            |       |  0.64

Nlocal:    84 ave 88 max 79 min
Histogram: 1 0 1 2 0 3 1 2 1 1
Nghost:    2612.08 ave 2629 max 2587 min
Histogram: 1 2 1 0 1 1 0 0 1 5
Neighs:    18631.1 ave 19575 max 17374 min
Histogram: 1 0 1 1 1 2 2 2 1 1

Total # of neighbors = 223573
Ave neighs/atom = 221.799
Neighbor list builds = 0
Dangerous builds = 0
CR_UPDATE- 23.300680	23.300680	23.300680	0.000000	0.000000	0.000000
For k = 6, applying strain of 1.005
Changing box ...
  triclinic box = (0 0 0) to (23.3007 23.3007 23.3007) with tilt (0 0.116503 0)
WARNING: Resetting reneighboring criteria during minimization (../min.cpp:168)
Ewald initialization ...
  G vector (1/distance) = 0.365055
  estimated absolute RMS force accuracy = 1.94166e-05
  estimated relative force accuracy = 1.34841e-06
  KSpace vectors: actual max1d max3d = 2079 10 4630
                  kxmax kymax kzmax  = 10 10 10
Setting up cg style minimization ...
  Unit style: metal
Memory usage per processor = 4.56264 Mbytes
Step Temp E_pair E_mol TotEng Press 
     454           10    -18274.26            0   -18272.959   -6756.4728 
     469           10   -18274.314            0   -18273.013   -6686.2925 
Loop time of 0.332985 on 12 procs for 15 steps with 1008 atoms

99.9% CPU use with 12 MPI tasks x no OpenMP threads

Minimization stats:
  Stopping criterion = linesearch alpha is zero
  Energy initial, next-to-last, final = 
        -18274.2603025     -18274.3143111     -18274.3143111
  Force two-norm initial, final = 1.24071 0.156243
  Force max component initial, final = 0.113905 0.0220173
  Final line search alpha, max atom move = 4.76837e-07 1.04987e-08
  Iterations, force evaluations = 15 111

MPI task timing breakdown:
Section |  min time  |  avg time  |  max time  |%varavg| %total
---------------------------------------------------------------
Pair    | 0.12087    | 0.12602    | 0.13333    |   1.0 | 37.84
Kspace  | 0.18291    | 0.18603    | 0.18892    |   0.5 | 55.87
Neigh   | 0          | 0          | 0          |   0.0 |  0.00
Comm    | 0.014011   | 0.018939   | 0.026911   |   2.7 |  5.69
Output  | 0          | 0          | 0          |   0.0 |  0.00
Modify  | 0          | 0          | 0          |   0.0 |  0.00
Other   |            | 0.001998   |            |       |  0.60

[...]
  KSpace vectors: actual max1d max3d = 2081 10 4630
                  kxmax kymax kzmax  = 10 10 10
Setting up cg style minimization ...
  Unit style: metal
Memory usage per processor = 4.56264 Mbytes
Step Temp E_pair E_mol TotEng Press 
     941           10   -18274.205            0   -18272.904   -6611.2995 
     950           10   -18274.227            0   -18272.926   -6581.3861 
     956           10   -18274.228            0   -18272.927   -6583.0345 
Loop time of 0.318453 on 12 procs for 15 steps with 1008 atoms

99.6% CPU use with 12 MPI tasks x no OpenMP threads

Minimization stats:
  Stopping criterion = linesearch alpha is zero
  Energy initial, next-to-last, final = 
         -18274.205281     -18274.2284841     -18274.2284841
  Force two-norm initial, final = 0.827402 0.0661511
  Force max component initial, final = 0.0750548 0.00431982
  Final line search alpha, max atom move = 1.90735e-06 8.2394e-09
  Iterations, force evaluations = 15 105

MPI task timing breakdown:
Section |  min time  |  avg time  |  max time  |%varavg| %total
---------------------------------------------------------------
Pair    | 0.10968    | 0.11902    | 0.12448    |   1.3 | 37.37
Kspace  | 0.17156    | 0.17639    | 0.18016    |   0.5 | 55.39
Neigh   | 0          | 0          | 0          |   0.0 |  0.00
Comm    | 0.014691   | 0.021047   | 0.028314   |   2.9 |  6.61
Output  | 2.5988e-05 | 2.7398e-05 | 3.5048e-05 |   0.0 |  0.01
Modify  | 0          | 0          | 0          |   0.0 |  0.00
Other   |            | 0.001969   |            |       |  0.62

Nlocal:    84 ave 88 max 78 min
Histogram: 1 1 0 0 2 0 2 1 2 3
Nghost:    2608.08 ave 2627 max 2583 min
Histogram: 1 3 0 1 1 0 0 0 2 4
Neighs:    18625.8 ave 19563 max 17235 min
Histogram: 1 1 0 1 1 0 2 3 2 1

Total # of neighbors = 223509
Ave neighs/atom = 221.735
Neighbor list builds = 0
Dangerous builds = 0
CR_UPDATE- 23.300680	23.300680	23.300680	0.000000	0.000000	0.000000
For k = 6, applying strain of 1.005
Changing box ...
  triclinic box = (0 0 0) to (23.3007 23.3007 23.3007) with tilt (0 0.116503 0)
WARNING: Resetting reneighboring criteria during minimization (../min.cpp:168)
Ewald initialization ...
  G vector (1/distance) = 0.365055
  estimated absolute RMS force accuracy = 1.94166e-05
  estimated relative force accuracy = 1.34841e-06
  KSpace vectors: actual max1d max3d = 2079 10 4630
                  kxmax kymax kzmax  = 10 10 10
Setting up cg style minimization ...
  Unit style: metal
Memory usage per processor = 4.56264 Mbytes
Step Temp E_pair E_mol TotEng Press 
     956           10    -18274.15            0   -18272.848   -6618.9259 
     971           10   -18274.206            0   -18272.905    -6586.723 
Loop time of 0.208434 on 12 procs for 15 steps with 1008 atoms

99.7% CPU use with 12 MPI tasks x no OpenMP threads

Minimization stats:
  Stopping criterion = linesearch alpha is zero
  Energy initial, next-to-last, final = 
        -18274.1501378     -18274.2061527     -18274.2061527
  Force two-norm initial, final = 1.24144 0.114064
  Force max component initial, final = 0.112684 0.00921492
  Final line search alpha, max atom move = 9.53674e-07 8.78803e-09
  Iterations, force evaluations = 15 69

MPI task timing breakdown:
Section |  min time  |  avg time  |  max time  |%varavg| %total
---------------------------------------------------------------
Pair    | 0.071438   | 0.078362   | 0.082818   |   1.1 | 37.60
Kspace  | 0.11417    | 0.11677    | 0.11866    |   0.4 | 56.02
Neigh   | 0          | 0          | 0          |   0.0 |  0.00
Comm    | 0.0083761  | 0.011924   | 0.017009   |   2.4 |  5.72
Output  | 0          | 0          | 0          |   0.0 |  0.00
Modify  | 0          | 0          | 0          |   0.0 |  0.00
Other   |            | 0.001378   |            |       |  0.66

Nlocal:    84 ave 88 max 78 min
Histogram: 1 1 0 0 2 0 2 1 2 3
Nghost:    2608.08 ave 2627 max 2583 min
Histogram: 1 3 0 1 1 0 0 0 2 4
Neighs:    18629 ave 19559 max 17238 min
Histogram: 1 1 0 1 1 0 2 3 2 1

Total # of neighbors = 223548
Ave neighs/atom = 221.774
Neighbor list builds = 0
Dangerous builds = 0
CR_UPDATE- 23.300680	23.300680	23.300680	0.000000	0.000000	0.000000
For k = 0, applying strain of 0.995
Changing box ...
  triclinic box = (0 0 0) to (23.3007 23.3007 23.3007) with tilt (0 0 -0.116503)
WARNING: Resetting reneighboring criteria during minimization (../min.cpp:168)
Ewald initialization ...
  G vector (1/distance) = 0.365055
  estimated absolute RMS force accuracy = 1.94166e-05
  estimated relative force accuracy = 1.34841e-06
  KSpace vectors: actual max1d max3d = 2079 10 4630
                  kxmax kymax kzmax  = 10 10 10
Setting up cg style minimization ...
  Unit style: metal
Memory usage per processor = 4.56264 Mbytes
Step Temp E_pair E_mol TotEng Press 
     971           10   -18274.278            0   -18272.977   -6588.4162 
     979           10   -18274.334            0   -18273.033   -6443.5691 
Loop time of 0.183647 on 12 procs for 8 steps with 1008 atoms

99.9% CPU use with 12 MPI tasks x no OpenMP threads

Minimization stats:
  Stopping criterion = linesearch alpha is zero
  Energy initial, next-to-last, final = 
         -18274.278487     -18274.3342366     -18274.3342366
  Force two-norm initial, final = 1.2481 0.267645
  Force max component initial, final = 0.118971 0.0293955
  Final line search alpha, max atom move = 1.19209e-07 3.50421e-09
  Iterations, force evaluations = 8 61

MPI task timing breakdown:
Section |  min time  |  avg time  |  max time  |%varavg| %total
---------------------------------------------------------------
Pair    | 0.063663   | 0.069911   | 0.073059   |   1.0 | 38.07
Kspace  | 0.099943   | 0.10184    | 0.1038     |   0.4 | 55.45
Neigh   | 0          | 0          | 0          |   0.0 |  0.00
Comm    | 0.0072873  | 0.010755   | 0.015449   |   2.3 |  5.86
Output  | 0          | 0          | 0          |   0.0 |  0.00
Modify  | 0          | 0          | 0          |   0.0 |  0.00
Other   |            | 0.00114    |            |       |  0.62

Nlocal:    84 ave 88 max 78 min
Histogram: 1 1 0 0 2 0 2 1 2 3
Nghost:    2608.08 ave 2627 max 2583 min
Histogram: 1 3 0 1 1 0 0 0 2 4
Neighs:    18629.8 ave 19572 max 17239 min
Histogram: 1 1 0 1 1 0 2 3 2 1

Total # of neighbors = 223557
Ave neighs/atom = 221.783
Neighbor list builds = 0
Dangerous builds = 0
CR_UPDATE- 23.300680	23.300680	23.300680	0.000000	0.000000	0.000000
For k = 1, applying strain of 0.996667
Changing box ...
  triclinic box = (0 0 0) to (23.3007 23.3007 23.3007) with tilt (0 0 -0.077661)
WARNING: Resetting reneighboring criteria during minimization (../min.cpp:168)
Ewald initialization ...
  G vector (1/distance) = 0.365055
  estimated absolute RMS force accuracy = 1.94166e-05
  estimated relative force accuracy = 1.34841e-06
  KSpace vectors: actual max1d max3d = 2081 10 4630
                  kxmax kymax kzmax  = 10 10 10
Setting up cg style minimization ...
  Unit style: metal
Memory usage per processor = 4.56264 Mbytes
Step Temp E_pair E_mol TotEng Press 
     979           10   -18274.289            0   -18272.988   -6590.3512 
     999           10   -18274.319            0   -18273.018   -6487.4598 
Loop time of 0.241308 on 12 procs for 20 steps with 1008 atoms

100.1% CPU use with 12 MPI tasks x no OpenMP threads

Minimization stats:
  Stopping criterion = linesearch alpha is zero
  Energy initial, next-to-last, final = 
        -18274.2891797     -18274.3192004     -18274.3192004
  Force two-norm initial, final = 0.83206 0.0623443
  Force max component initial, final = 0.0792934 0.00495724
  Final line search alpha, max atom move = 1.90735e-06 9.45518e-09
  Iterations, force evaluations = 20 81

MPI task timing breakdown:
Section |  min time  |  avg time  |  max time  |%varavg| %total
---------------------------------------------------------------
Pair    | 0.083137   | 0.09154    | 0.096173   |   1.2 | 37.94
Kspace  | 0.13217    | 0.13448    | 0.13722    |   0.4 | 55.73
Neigh   | 0          | 0          | 0          |   0.0 |  0.00
Comm    | 0.0098271  | 0.01368    | 0.019429   |   2.5 |  5.67
Output  | 0          | 0          | 0          |   0.0 |  0.00
Modify  | 0          | 0          | 0          |   0.0 |  0.00
Other   |            | 0.001604   |            |       |  0.66

Nlocal:    84 ave 88 max 78 min
Histogram: 1 1 0 0 2 0 2 1 2 3
Nghost:    2608.08 ave 2627 max 2583 min
Histogram: 1 3 0 1 1 0 0 0 2 4
Neighs:    18628.4 ave 19569 max 17242 min
Histogram: 1 1 0 1 1 0 2 3 2 1

Total # of neighbors = 223541
Ave neighs/atom = 221.767
Neighbor list builds = 0
Dangerous builds = 0
CR_UPDATE- 23.300680	23.300680	23.300680	0.000000	0.000000	0.000000
For k = 2, applying strain of 0.998333
Changing box ...
  triclinic box = (0 0 0) to (23.3007 23.3007 23.3007) with tilt (0 0 -0.038842)
WARNING: Resetting reneighboring criteria during minimization (../min.cpp:168)
Ewald initialization ...
  G vector (1/distance) = 0.365055
  estimated absolute RMS force accuracy = 1.94166e-05
  estimated relative force accuracy = 1.34841e-06
  KSpace vectors: actual max1d max3d = 2082 10 4630
                  kxmax kymax kzmax  = 10 10 10
Setting up cg style minimization ...
  Unit style: metal
Memory usage per processor = 4.56264 Mbytes
Step Temp E_pair E_mol TotEng Press 
     999           10   -18274.274            0   -18272.972   -6588.0822 
    1000           10   -18274.277            0   -18272.975   -6580.1335 
    1005           10   -18274.279            0   -18272.977    -6535.887 
Loop time of 0.160876 on 12 procs for 6 steps with 1008 atoms

99.8% CPU use with 12 MPI tasks x no OpenMP threads

Minimization stats:
  Stopping criterion = linesearch alpha is zero
  Energy initial, next-to-last, final = 
         -18274.274119      -18274.279022      -18274.279022
  Force two-norm initial, final = 0.416265 0.115088
  Force max component initial, final = 0.0396714 0.0128335
  Final line search alpha, max atom move = 4.76837e-07 6.11949e-09
  Iterations, force evaluations = 6 53

MPI task timing breakdown:
Section |  min time  |  avg time  |  max time  |%varavg| %total
---------------------------------------------------------------
Pair    | 0.055336   | 0.060524   | 0.06465    |   1.0 | 37.62
Kspace  | 0.087734   | 0.089979   | 0.091982   |   0.4 | 55.93
Neigh   | 0          | 0          | 0          |   0.0 |  0.00
Comm    | 0.0068297  | 0.009381   | 0.013278   |   2.1 |  5.83
Output  | 2.408e-05  | 2.563e-05  | 3.314e-05  |   0.0 |  0.02
Modify  | 0          | 0          | 0          |   0.0 |  0.00
Other   |            | 0.0009668  |            |       |  0.60

Nlocal:    84 ave 88 max 78 min
Histogram: 1 1 0 0 2 0 2 1 2 3
Nghost:    2608.08 ave 2627 max 2583 min
Histogram: 1 3 0 1 1 0 0 0 2 4
Neighs:    18628.3 ave 19566 max 17236 min
Histogram: 1 1 0 1 1 0 2 3 2 1

Total # of neighbors = 223540
Ave neighs/atom = 221.766
Neighbor list builds = 0
Dangerous builds = 0
CR_UPDATE- 23.300680	23.300680	23.300680	0.000000	0.000000	0.000000
For k = 3, applying strain of 1
Changing box ...
  triclinic box = (0 0 0) to (23.3007 23.3007 23.3007) with tilt (0 0 0)
WARNING: Resetting reneighboring criteria during minimization (../min.cpp:168)
Ewald initialization ...
  G vector (1/distance) = 0.365055
  estimated absolute RMS force accuracy = 1.94166e-05
  estimated relative force accuracy = 1.34841e-06
  KSpace vectors: actual max1d max3d = 2084 10 4630
                  kxmax kymax kzmax  = 10 10 10
Setting up cg style minimization ...
  Unit style: metal
Memory usage per processor = 4.56264 Mbytes
Step Temp E_pair E_mol TotEng Press 
    1005           10   -18274.232            0   -18272.931   -6581.3645 
    1010           10   -18274.233            0   -18272.931   -6574.6547 
Loop time of 0.0832859 on 12 procs for 5 steps with 1008 atoms

99.5% CPU use with 12 MPI tasks x no OpenMP threads

Minimization stats:
  Stopping criterion = linesearch alpha is zero
  Energy initial, next-to-last, final = 
        -18274.2323282     -18274.2325278     -18274.2325278
  Force two-norm initial, final = 0.0047446 0.00180298
  Force max component initial, final = 0.000358302 0.000326151
  Final line search alpha, max atom move = 0.00195312 6.37013e-07
  Iterations, force evaluations = 5 27

MPI task timing breakdown:
Section |  min time  |  avg time  |  max time  |%varavg| %total
---------------------------------------------------------------
Pair    | 0.028918   | 0.031411   | 0.032957   |   0.7 | 37.71
Kspace  | 0.045366   | 0.046411   | 0.047339   |   0.2 | 55.72
Neigh   | 0          | 0          | 0          |   0.0 |  0.00
Comm    | 0.0035992  | 0.0048886  | 0.0068326  |   1.5 |  5.87
Output  | 0          | 0          | 0          |   0.0 |  0.00
Modify  | 0          | 0          | 0          |   0.0 |  0.00
Other   |            | 0.0005757  |            |       |  0.69

Nlocal:    84 ave 88 max 78 min
Histogram: 1 1 0 0 2 0 2 1 2 3
Nghost:    2608.08 ave 2627 max 2583 min
Histogram: 1 3 0 1 1 0 0 0 2 4
Neighs:    18629.5 ave 19569 max 17238 min
Histogram: 1 1 0 1 1 0 2 3 2 1

Total # of neighbors = 223554
Ave neighs/atom = 221.78
Neighbor list builds = 0
Dangerous builds = 0
CR_UPDATE- 23.300680	23.300680	23.300680	0.000000	0.000000	0.000000
For k = 4, applying strain of 1.00167
Changing box ...
  triclinic box = (0 0 0) to (23.3007 23.3007 23.3007) with tilt (0 0 0.038842)
WARNING: Resetting reneighboring criteria during minimization (../min.cpp:168)
Ewald initialization ...
  G vector (1/distance) = 0.365055
  estimated absolute RMS force accuracy = 1.94166e-05
  estimated relative force accuracy = 1.34841e-06
  KSpace vectors: actual max1d max3d = 2082 10 4630
                  kxmax kymax kzmax  = 10 10 10
Setting up cg style minimization ...
  Unit style: metal
Memory usage per processor = 4.56264 Mbytes
Step Temp E_pair E_mol TotEng Press 
    1010           10   -18274.162            0   -18272.861   -6569.6723 
    1017           10   -18274.168            0   -18272.867   -6610.6625 
Loop time of 0.277159 on 12 procs for 7 steps with 1008 atoms

100.0% CPU use with 12 MPI tasks x no OpenMP threads

Minimization stats:
  Stopping criterion = linesearch alpha is zero
  Energy initial, next-to-last, final = 
        -18274.1624703     -18274.1682391     -18274.1682391
  Force two-norm initial, final = 0.415969 0.103543
  Force max component initial, final = 0.0395343 0.0118842
  Final line search alpha, max atom move = 9.53674e-07 1.13337e-08
  Iterations, force evaluations = 7 93

MPI task timing breakdown:
Section |  min time  |  avg time  |  max time  |%varavg| %total
---------------------------------------------------------------
Pair    | 0.098505   | 0.10525    | 0.11039    |   1.1 | 37.98
Kspace  | 0.15221    | 0.15451    | 0.15726    |   0.4 | 55.75
Neigh   | 0          | 0          | 0          |   0.0 |  0.00
Comm    | 0.011181   | 0.01579    | 0.022544   |   2.7 |  5.70
Output  | 0          | 0          | 0          |   0.0 |  0.00
Modify  | 0          | 0          | 0          |   0.0 |  0.00
Other   |            | 0.001606   |            |       |  0.58

Nlocal:    84 ave 88 max 78 min
Histogram: 1 1 0 0 2 0 2 1 2 3
Nghost:    2608.08 ave 2627 max 2583 min
Histogram: 1 3 0 1 1 0 0 0 2 4
Neighs:    18629.4 ave 19571 max 17233 min
Histogram: 1 1 0 1 1 0 2 3 2 1

Total # of neighbors = 223553
Ave neighs/atom = 221.779
Neighbor list builds = 0
Dangerous builds = 0
CR_UPDATE- 23.300680	23.300680	23.300680	0.000000	0.000000	0.000000
For k = 5, applying strain of 1.00333
Changing box ...
  triclinic box = (0 0 0) to (23.3007 23.3007 23.3007) with tilt (0 0 0.077661)
WARNING: Resetting reneighboring criteria during minimization (../min.cpp:168)
Ewald initialization ...
  G vector (1/distance) = 0.365055
  estimated absolute RMS force accuracy = 1.94166e-05
  estimated relative force accuracy = 1.34841e-06
  KSpace vectors: actual max1d max3d = 2081 10 4630
                  kxmax kymax kzmax  = 10 10 10
Setting up cg style minimization ...
  Unit style: metal
Memory usage per processor = 4.56264 Mbytes
Step Temp E_pair E_mol TotEng Press 
    1017           10   -18274.064            0   -18272.762   -6553.0376 
    1027           10   -18274.091            0   -18272.789   -6657.4504 
Loop time of 0.181547 on 12 procs for 10 steps with 1008 atoms

100.0% CPU use with 12 MPI tasks x no OpenMP threads

Minimization stats:
  Stopping criterion = linesearch alpha is zero
  Energy initial, next-to-last, final = 
        -18274.0639001     -18274.0905003     -18274.0905003
  Force two-norm initial, final = 0.831882 0.151886
  Force max component initial, final = 0.0790789 0.016056
  Final line search alpha, max atom move = 4.76837e-07 7.65612e-09
  Iterations, force evaluations = 10 61

MPI task timing breakdown:
Section |  min time  |  avg time  |  max time  |%varavg| %total
---------------------------------------------------------------
Pair    | 0.06301    | 0.068921   | 0.072438   |   1.0 | 37.96
Kspace  | 0.099244   | 0.10123    | 0.10279    |   0.4 | 55.76
Neigh   | 0          | 0          | 0          |   0.0 |  0.00
Comm    | 0.0072646  | 0.010253   | 0.01463    |   2.2 |  5.65
Output  | 0          | 0          | 0          |   0.0 |  0.00
Modify  | 0          | 0          | 0          |   0.0 |  0.00
Other   |            | 0.001144   |            |       |  0.63

Nlocal:    84 ave 88 max 78 min
Histogram: 1 1 0 0 2 0 2 1 2 3
Nghost:    2608.08 ave 2627 max 2583 min
Histogram: 1 3 0 1 1 0 0 0 2 4
Neighs:    18627.7 ave 19573 max 17228 min
Histogram: 1 1 0 1 1 0 2 3 2 1

Total # of neighbors = 223532
Ave neighs/atom = 221.758
Neighbor list builds = 0
Dangerous builds = 0
CR_UPDATE- 23.300680	23.300680	23.300680	0.000000	0.000000	0.000000
For k = 6, applying strain of 1.005
Changing box ...
  triclinic box = (0 0 0) to (23.3007 23.3007 23.3007) with tilt (0 0 0.116503)
WARNING: Resetting reneighboring criteria during minimization (../min.cpp:168)
Ewald initialization ...
  G vector (1/distance) = 0.365055
  estimated absolute RMS force accuracy = 1.94166e-05
  estimated relative force accuracy = 1.34841e-06
  KSpace vectors: actual max1d max3d = 2079 10 4630
                  kxmax kymax kzmax  = 10 10 10
Setting up cg style minimization ...
  Unit style: metal
Memory usage per processor = 4.56264 Mbytes
Step Temp E_pair E_mol TotEng Press 
    1027           10   -18273.942            0   -18272.641    -6532.822 
    1045           10   -18274.004            0   -18272.703    -6698.534 
Loop time of 0.231952 on 12 procs for 18 steps with 1008 atoms

99.9% CPU use with 12 MPI tasks x no OpenMP threads

Minimization stats:
  Stopping criterion = linesearch alpha is zero
  Energy initial, next-to-last, final = 
        -18273.9423413     -18274.0041861     -18274.0041861
  Force two-norm initial, final = 1.24814 0.120987
  Force max component initial, final = 0.118617 0.0177322
  Final line search alpha, max atom move = 4.76837e-07 8.45539e-09
  Iterations, force evaluations = 18 77

MPI task timing breakdown:
Section |  min time  |  avg time  |  max time  |%varavg| %total
---------------------------------------------------------------
Pair    | 0.079845   | 0.087466   | 0.092137   |   1.2 | 37.71
Kspace  | 0.12637    | 0.12905    | 0.1313     |   0.4 | 55.64
Neigh   | 0          | 0          | 0          |   0.0 |  0.00
Comm    | 0.0098441  | 0.013861   | 0.019657   |   2.5 |  5.98
Output  | 0          | 0          | 0          |   0.0 |  0.00
Modify  | 0          | 0          | 0          |   0.0 |  0.00
Other   |            | 0.001571   |            |       |  0.68

Nlocal:    84 ave 88 max 78 min
Histogram: 1 1 0 0 2 0 2 1 2 3
Nghost:    2608.08 ave 2627 max 2583 min
Histogram: 1 3 0 1 1 0 0 0 2 4
Neighs:    18627.8 ave 19571 max 17225 min
Histogram: 1 1 0 1 1 0 2 3 2 1

Total # of neighbors = 223533
Ave neighs/atom = 221.759
Neighbor list builds = 0
Dangerous builds = 0
Total wall time: 0:00:17
Done.
