ITEM: TIMESTEP
0
ITEM: NUMBER OF ATOMS
648
ITEM: BOX BOUNDS xy xz yz pp pp pp
-0.599526 21.1656 -0.322389
0.0870298 21.7611 -0.506371
0.309624 21.0852 0.453236
ITEM: ATOMS id type x y z
121 1 7.10206 0.696108 0.676731
218 2 7.05817 2.22617 1.18531
418 2 9.80888 2.09158 7.09389
272 2 3.9791 1.49997 1.71287
645 2 8.09439 0.877815 5.75231
293 2 10.3936 1.52127 4.48335
115 1 3.10243 2.02591 2.9566
626 2 9.09778 2.24977 2.58444
621 2 1.92795 0.96046 3.04493
108 1 5.56226 1.69825 4.63434
275 2 4.07279 2.1464 4.20893
194 1 9.27276 1.96629 5.58671
372 2 6.61654 2.40792 3.68472
98 1 2.17069 2.88604 8.0248
77 1 7.60133 2.89604 2.53791
440 2 5.6623 2.07885 6.18952
518 2 3.55038 3.09543 7.2831
630 2 1.14643 1.77567 7.43408
508 2 2.46147 2.21723 9.48704
30 1 1.83167 1.06582 10.4568
220 2 0.602764 0.676482 0.774131
538 2 10.1473 2.90179 9.67186
133 1 0.619937 0.28107 7.82352
62 1 0.759731 0.181706 2.28489
97 1 0.0507278 1.9616 17.3421
3 1 6.22348 2.83002 12.1584
643 2 7.82797 0.965066 20.4586
435 2 3.27596 2.51986 19.9805
403 2 6.89136 1.37486 12.0757
408 2 4.49956 2.47354 15.0755
406 2 2.32472 2.07457 13.91
511 2 0.719735 1.84679 11.3128
73 1 1.00097 1.58203 14.6504
207 1 3.66305 2.93625 13.7744
24 1 8.95779 1.79969 19.7143
244 2 9.0096 1.55723 15.7695
50 1 4.8409 1.75791 16.472
39 1 7.95738 1.22145 16.9399
378 2 1.14285 1.48601 16.2722
340 2 4.16389 2.6818 17.5852
233 2 6.43672 1.55587 16.6089
316 2 8.37578 2.06616 18.2439
368 2 9.20404 3.12426 20.5501
437 2 4.67839 2.70351 12.5697
95 1 3.63293 1.36824 21.0071
586 2 5.17237 0.938312 20.7899
602 2 0.0198337 1.3834 18.8469
299 2 -0.128679 2.73311 14.4823
153 1 3.13861 5.00176 2.53403
159 1 6.34643 4.6257 9.56607
37 1 5.0905 3.36988 6.93795
144 1 8.7836 5.63214 2.28414
422 2 7.65289 4.49857 2.54179
321 2 4.05361 5.17087 1.22145
266 2 9.46799 5.05405 0.980338
178 1 9.4416 4.95769 5.06944
472 2 9.95818 6.26835 8.08261
549 2 4.17705 5.39887 3.69467
104 1 0.266715 5.08798 8.95713
463 2 9.71247 5.4432 3.57277
300 2 5.24955 4.5805 5.89554
349 2 8.85957 3.46612 5.14197
384 2 1.3946 4.27835 8.16279
356 2 5.36707 5.88147 9.91873
183 1 4.79382 5.87993 5.07874
507 2 7.79047 5.26476 9.27156
249 2 2.60073 3.51461 2.66807
250 2 5.83075 3.85968 8.25997
342 2 8.4349 6.11423 5.53455
358 2 1.95672 6.07105 2.41141
557 2 -0.0588242 4.07738 10.1943
486 2 9.19808 4.34893 11.9303
303 2 6.34715 3.58808 10.7621
174 1 8.3504 4.75332 13.2558
286 2 5.78508 6.20322 20.7542
338 2 9.19424 4.48075 14.6067
192 1 2.79474 5.72674 14.7268
243 2 2.49811 4.54409 18.5192
274 2 3.1741 4.47088 13.8018
628 2 2.21794 5.0367 16.0685
354 2 5.07835 4.34031 19.23
36 1 1.35405 4.84036 17.4211
134 1 6.21803 5.4474 19.411
493 2 0.497306 6.18779 17.5713
110 1 9.07982 4.70194 20.3971
468 2 7.70972 4.90957 19.5633
401 2 7.04347 3.80598 13.1734
289 2 8.07971 6.33431 13.2908
612 2 0.370964 3.55444 17.4272
125 1 3.72849 3.55997 18.8572
251 2 10.1826 4.41532 17.239
8 1 10.3675 3.61161 11.1045
152 1 4.27664 7.05694 9.85111
279 2 4.87356 8.542 10.0212
171 1 0.922516 7.03485 1.65465
91 1 6.99313 8.17475 1.86239
294 2 4.05309 8.93731 6.59325
584 2 5.68099 7.23164 1.89209
436 2 1.84067 8.06765 0.818616
581 2 3.55862 6.55137 5.85658
427 2 8.06254 8.76635 5.75311
304 2 1.46908 8.94294 10.4904
470 2 6.03924 6.91625 5.22728
2 1 7.41864 7.29666 5.95671
497 2 7.46286 7.11545 7.56477
32 1 3.17578 7.61859 6.96613
255 2 8.61431 7.71476 9.80769
271 2 3.61778 7.06069 8.38058
441 2 8.21366 7.12292 2.08284
454 2 1.67338 8.16751 6.81292
216 1 8.4545 9.06679 10.6355
86 1 8.4992 6.57722 8.70414
371 2 0.794831 6.47848 9.52417
76 1 5.03396 6.32228 0.739103
570 2 6.91385 8.93393 0.42241
119 1 1.46975 7.3427 10.6892
537 2 9.80474 6.87839 17.95
311 2 8.25892 8.69562 12.204
374 2 8.59958 8.53365 14.8038
320 2 6.22345 7.98558 13.8268
82 1 4.97123 7.98289 14.8198
136 1 7.80714 7.90402 13.5288
357 2 0.602277 7.03144 11.9956
269 2 9.89565 9.29402 17.1938
577 2 5.5214 8.15513 16.3158
146 1 0.182944 6.77236 13.5117
111 1 6.13743 8.08449 17.7574
381 2 1.20879 8.65975 17.8898
471 2 9.98096 9.18475 19.5007
414 2 3.61442 7.80689 20.6843
494 2 7.69914 8.40324 17.6596
223 2 8.48815 7.74966 19.9618
477 2 5.66095 9.24275 18.7614
83 1 -0.0568301 7.68879 17.76
193 1 9.08259 8.21108 18.4003
603 2 4.09639 6.65017 14.8178
361 2 1.60666 6.70909 14.2724
503 2 3.0115 6.88016 10.8332
114 1 2.67583 9.08521 20.9506
237 2 4.09783 9.31529 14.727
209 1 9.41629 8.5724 20.9702
425 2 6.02809 6.5803 18.2898
236 2 0.198436 10.4038 7.03145
1 1 6.03369 10.6295 3.47176
181 1 3.82815 10.274 5.70165
447 2 4.79178 10.3062 4.42628
451 2 2.2412 10.1452 5.39876
43 1 9.08057 9.92065 6.26738
19 1 5.07296 12.1716 7.82802
410 2 8.55702 10.6415 7.58939
52 1 5.46396 10.0206 10.2105
499 2 5.04049 11.1421 9.11008
74 1 4.63889 11.1029 0.83227
336 2 9.33946 11.3811 2.72035
574 2 5.56123 11.3543 2.11727
550 2 4.22415 11.4902 6.65551
109 1 8.66796 11.9778 4.04291
66 1 10.0016 10.8241 1.41169
290 2 7.11594 11.576 4.15372
640 2 3.94628 9.67405 1.12162
386 2 9.29738 11.1448 5.2472
339 2 1.00858 11.601 10.1527
397 2 7.06919 9.78764 10.2274
113 1 8.13783 12.1196 8.03868
456 2 9.45297 9.36802 1.03507
450 2 9.77426 9.97541 10.4855
79 1 0.943145 9.38896 6.04969
430 2 6.8105 9.3042 2.97163
346 2 6.6446 12.2886 7.50094
619 2 8.17931 12.3656 9.61137
404 2 0.188697 10.2299 14.8625
326 2 5.09536 10.5873 11.6793
313 2 1.34287 10.6122 12.5654
476 2 2.63699 11.2874 14.8263
47 1 6.76259 11.6256 15.4424
572 2 9.14868 12.1734 20.9192
58 1 1.2286 11.1742 14.0561
482 2 8.02654 10.7908 15.9965
191 1 3.82125 10.599 15.6719
44 1 0.834071 10.2998 11.0697
172 1 8.84827 12.0262 19.3417
88 1 6.18882 10.288 19.853
217 2 5.10163 11.3643 20.3415
324 2 0.896393 11.2958 18.0533
302 2 7.54577 11.0249 19.334
185 1 1.93297 10.0625 18.1393
283 2 9.29918 11.984 11.8748
565 2 5.26201 11.2925 15.9619
46 1 5.73707 11.6501 12.6716
455 2 6.61445 11.1293 13.9012
544 2 3.09402 10.2574 17.0588
140 1 9.20389 9.71181 15.7448
478 2 2.45186 9.94614 19.6365
278 2 6.56474 14.8049 3.08465
71 1 0.708628 13.0578 9.53401
317 2 1.44412 13.178 2.22384
211 1 2.83731 13.4689 1.53673
260 2 3.98888 14.0494 2.48858
501 2 0.139548 12.7979 8.05736
197 1 0.0751063 13.7875 2.78536
230 2 8.75826 13.5554 3.88418
131 1 8.06662 14.9894 3.64172
225 2 0.404576 14.6163 4.11214
380 2 4.59051 13.6879 8.00216
421 2 1.95089 14.0141 9.6376
353 2 9.17495 13.2278 7.52589
213 1 4.18445 15.2279 8.13958
15 1 5.18386 15.1061 2.32785
297 2 2.4947 14.5624 0.406826
206 1 2.79224 14.9307 10.6436
571 2 4.03407 15.4141 9.75087
433 2 3.52259 12.2295 0.782218
256 2 5.41851 15.2326 0.719842
78 1 8.1475 12.8337 11.136
204 1 4.99476 15.6008 19.8772
453 2 0.676757 15.193 14.9983
487 2 3.0115 13.9974 11.905
636 2 9.19292 14.071 14.179
35 1 7.86498 14.5454 14.9689
210 1 3.8948 14.0786 13.2342
396 2 2.97977 14.1757 14.5226
80 1 2.08307 15.0231 19.5747
620 2 4.76126 12.7447 13.2896
162 1 1.50509 13.8474 15.0284
566 2 7.12328 13.1966 15.4639
284 2 8.4823 15.2989 20.8987
529 2 3.65104 14.966 19.3005
364 2 1.33705 13.2823 16.5072
201 1 7.85366 14.8526 19.4936
617 2 1.33497 13.745 19.0097
512 2 6.27359 14.6986 19.608
631 2 8.47733 13.5078 18.8778
10 1 0.630284 12.8632 17.8729
227 2 8.23172 14.4172 11.0642
391 2 4.73957 15.4049 12.9177
417 2 0.806727 12.7299 14.0724
610 2 6.73606 12.4859 11.7517
259 2 6.95462 15.3902 13.9671
464 2 2.27129 18.077 6.75217
553 2 10.2047 17.1513 0.537012
637 2 8.85727 15.841 2.51289
495 2 8.17802 15.6862 5.07006
296 2 4.65313 16.5399 2.77946
28 1 9.79715 15.7282 1.19943
390 2 2.78033 15.635 7.47911
241 2 9.63029 17.7125 5.41369
29 1 8.89879 16.546 6.2181
593 2 0.531925 16.2946 6.21715
276 2 7.08249 15.8756 9.18562
528 2 9.88763 15.6718 7.14137
596 2 7.72054 17.1661 7.09557
473 2 5.22339 16.3443 7.62021
87 1 1.46038 17.6108 10.3248
61 1 6.55999 17.021 8.17033
515 2 0.533077 17.2089 3.76117
532 2 1.13316 17.1398 8.81201
112 1 1.62083 16.7243 7.31817
484 2 9.16931 16.7449 10.2367
150 1 4.77688 18.1095 2.62447
118 1 -0.0187411 16.0234 4.72748
34 1 7.86931 15.8825 10.5718
633 2 6.39669 18.4283 8.94089
407 2 6.88983 16.5037 11.6689
402 2 -0.235464 18.2376 18.3745
184 1 0.649803 17.7139 19.5991
160 1 6.0528 16.3187 13.0236
519 2 5.69389 17.7822 13.5338
624 2 8.30029 18.2533 17.1601
165 1 8.68367 16.687 17.2034
546 2 5.06889 17.0728 19.2187
618 2 -0.283653 17.1564 20.773
328 2 1.48119 16.4217 19.0809
460 2 8.07175 16.1228 18.5602
536 2 2.04218 16.2789 11.0289
291 2 0.213501 17.986 11.2509
57 1 4.95147 18.6301 18.7933
592 2 8.21739 15.639 16.0883
212 1 -0.29703 18.054 12.7533
263 2 8.73178 19.0705 1.2056
334 2 4.67172 18.8296 4.04239
205 1 7.55992 19.3993 2.2458
122 1 0.38116 18.8015 3.63416
492 2 0.644583 19.8011 2.40171
498 2 7.04345 20.8845 1.87769
395 2 4.76147 20.2493 9.75978
235 2 1.28026 19.4093 4.80894
100 1 4.92753 19.9771 5.1022
315 2 6.23764 19.8507 5.99661
513 2 3.72056 18.6888 1.5696
16 1 9.29857 19.1785 4.86516
38 1 2.13215 19.5521 6.16606
253 2 8.13819 19.2634 3.74432
578 2 3.58883 20.1522 5.94638
18 1 7.45479 20.736 6.57957
280 2 1.26314 20.4513 7.13817
579 2 7.00572 20.8178 8.11981
101 1 6.32317 20.0002 9.34653
423 2 8.82547 19.9931 6.16526
583 2 6.2766 18.4449 2.10494
322 2 2.59114 18.7702 10.3764
258 2 0.602581 21.4438 9.40036
409 2 5.20803 21.3536 4.34872
224 2 10.0976 18.8468 8.7318
288 2 7.1305 20.407 10.6788
5 1 9.46117 19.1879 20.9847
525 2 8.9464 19.3921 19.4516
56 1 7.93839 19.4747 18.1725
490 2 6.62305 20.2417 13.1785
343 2 2.52094 21.2111 20.886
228 2 0.464902 21.2657 14.2806
588 2 6.44234 19.2077 18.6984
306 2 0.795988 18.7483 13.7047
203 1 5.32238 19.3406 13.4851
373 2 4.66554 19.7386 14.8803
67 1 0.82016 19.8271 14.9006
569 2 4.31506 19.6129 12.2295
375 2 3.93439 21.487 16.598
143 1 3.74004 19.9488 16.1793
281 2 2.23219 19.769 15.6599
558 2 7.88769 20.9032 17.4188
33 1 3.56511 19.9852 10.8398
428 2 4.08102 19.3194 19.9424
573 2 4.2062 18.9782 17.3887
141 1 7.34096 21.1742 12.0828
245 2 -0.279166 19.4141 15.9964
188 1 2.8016 19.6426 20.8702
398 2 2.62654 21.2943 11.0104
405 2 1.62603 18.8047 20.2031
248 2 8.87139 21.5271 12.365
585 2 11.4266 0.779849 1.95307
521 2 15.8833 1.40862 1.36876
509 2 14.3656 1.16238 8.9577
198 1 16.4416 2.2759 2.59488
337 2 17.9278 1.8633 2.98347
22 1 14.6792 2.96786 5.00827
323 2 15.4532 2.12732 3.87711
393 2 18.8587 0.907908 5.23336
26 1 15.1667 1.13726 10.3497
158 1 18.8451 0.750759 3.63874
514 2 16.6657 1.60342 9.96661
475 2 14.0913 2.08845 6.23678
622 2 12.1537 2.14102 8.11632
606 2 18.0786 1.63789 7.75097
202 1 13.7304 2.10597 7.8216
54 1 10.5954 1.9266 8.46883
348 2 19.2917 2.06612 10.0427
151 1 17.9137 2.26087 9.22289
25 1 18.6193 0.493807 6.76489
221 2 20.313 0.581626 3.01912
282 2 10.4948 0.358486 8.87823
170 1 10.6499 1.86753 2.8915
48 1 10.618 1.51375 15.56
524 2 14.5869 2.10267 11.4953
446 2 12.4524 2.37331 18.4791
168 1 14.0184 2.59801 18.2804
370 2 14.7804 2.31664 14.2286
387 2 10.7286 2.38976 12.1058
128 1 14.7371 3.04256 12.7861
190 1 20.1649 1.42915 20.2593
177 1 17.9864 1.78626 17.1701
517 2 14.4344 1.99972 16.8571
413 2 17.4586 0.612182 18.1898
68 1 15.3412 1.63715 15.5729
444 2 16.8544 1.98238 16.055
516 2 19.5241 1.51022 16.7756
648 2 10.9571 0.773178 14.2105
531 2 11.1344 0.877449 16.9223
69 1 20.372 2.77044 10.9999
533 2 14.6254 1.81687 19.547
420 2 19.4755 2.8901 20.2637
92 1 11.5962 1.00984 18.4553
145 1 14.8479 0.98396 20.9081
443 2 18.2438 3.13345 18.0457
535 2 11.1359 3.03112 15.3766
84 1 10.6637 0.888476 12.6471
605 2 10.3645 1.11666 19.445
604 2 19.6849 3.24793 12.3396
65 1 15.3165 4.72834 1.42851
562 2 13.9423 3.95931 1.77525
344 2 16.3979 3.81772 2.15439
53 1 16.1172 5.51015 6.12668
629 2 14.8326 5.84686 7.05439
445 2 10.701 4.90945 6.05522
502 2 13.5303 3.86424 4.2621
195 1 12.7701 4.23221 2.86284
638 2 15.7505 4.05253 5.55382
295 2 14.3187 3.55956 8.20301
14 1 18.2129 5.27575 8.46592
415 2 17.3524 5.52709 7.15116
72 1 14.0645 5.12219 8.26971
335 2 19.7986 5.23099 8.20301
365 2 17.7616 3.84439 9.05223
187 1 11.2614 5.87217 7.20762
599 2 12.4915 5.35785 8.07478
226 2 12.5054 5.77005 2.41248
341 2 14.6524 5.66936 9.63614
238 2 11.5577 3.19719 2.78943
369 2 17.9661 6.31369 9.66587
479 2 11.7702 5.88085 13.2923
157 1 19.8383 3.83949 13.8217
465 2 17.8396 5.62364 12.2512
31 1 17.1549 4.81204 13.4534
102 1 12.6225 5.30771 12.0805
439 2 20.5416 5.28959 13.7672
590 2 18.3375 4.14556 14.3187
623 2 10.3965 5.16591 19.6549
607 2 11.6254 4.61656 11.0433
616 2 13.6283 4.19124 12.6425
595 2 16.1948 5.84251 14.2506
240 2 11.2177 5.80778 15.639
522 2 14.6987 4.02706 18.3927
489 2 12.208 6.23278 18.2402
400 2 16.3713 5.9863 18.5244
99 1 10.7475 5.59777 18.1556
564 2 14.9907 5.27408 20.6378
318 2 18.9891 5.34703 19.6489
40 1 15.7349 4.7769 19.3381
222 2 16.1832 3.74561 12.7716
63 1 18.4682 3.85158 19.4834
462 2 16.9261 3.87457 19.9288
45 1 10.3915 4.41695 15.6528
360 2 20.9186 6.23853 0.632114
547 2 13.7392 8.05314 1.82485
642 2 11.1239 7.49532 1.00763
11 1 15.3443 7.84261 1.85327
551 2 20.9096 7.83375 2.64447
124 1 12.6062 6.98747 1.35182
265 2 14.2533 8.15648 9.58662
148 1 11.9765 8.71085 6.31128
325 2 11.8243 7.13465 6.40041
214 1 19.9466 8.60769 3.64225
469 2 16.172 8.24002 0.519916
41 1 17.0614 7.916 4.38103
555 2 18.5925 7.78817 3.93635
582 2 16.1557 8.37783 3.12528
491 2 17.0315 9.01992 5.55341
542 2 16.4053 6.58786 4.99284
166 1 14.636 6.97509 10.5785
333 2 15.3766 6.22604 1.96358
239 2 12.9378 9.16001 7.52051
362 2 20.8114 8.91814 4.96393
591 2 10.4914 9.24743 6.51045
21 1 14.1556 9.34962 8.54471
138 1 15.8689 7.41456 17.962
261 2 20.2092 7.96911 14.0771
500 2 20.0853 8.33087 16.5292
452 2 18.5421 7.99832 11.5961
186 1 19.9395 9.14469 15.1616
563 2 15.1329 8.38892 14.2336
327 2 11.7969 8.22188 14.42
161 1 12.1214 6.66876 14.647
510 2 16.0768 7.16067 11.2143
483 2 15.8354 7.28786 16.3848
129 1 15.2502 6.94074 14.9329
310 2 12.1517 8.84704 18.7052
496 2 18.0116 7.60089 20.7583
126 1 12.8898 7.44686 19.0519
351 2 16.6723 8.5179 18.783
615 2 12.6668 7.15037 20.6251
540 2 14.3834 7.54042 18.5522
182 1 16.9845 8.77548 20.3417
412 2 19.979 7.67379 19.0755
93 1 17.6428 6.77404 11.1649
179 1 19.3165 6.79594 20.2468
466 2 13.6909 6.49571 14.9856
231 2 13.4827 6.57594 11.603
382 2 16.3913 11.8275 9.06432
504 2 19.4513 10.0131 3.02062
246 2 13.7128 10.7934 2.95695
12 1 16.1119 10.113 6.26901
312 2 14.072 10.7183 9.36061
575 2 14.862 10.3661 5.30533
130 1 13.4966 10.5465 4.51697
70 1 17.8433 11.3548 9.46194
580 2 12.7856 11.8719 5.11719
96 1 14.8632 12.0875 9.4617
625 2 19.0229 11.334 8.38752
89 1 18.8489 11.4841 2.82423
116 1 13.0592 11.299 1.58829
534 2 18.1924 11.6816 1.39629
347 2 11.5869 10.6745 1.49542
175 1 20.2063 11.6603 7.34023
247 2 17.8026 11.7632 3.99782
388 2 19.4056 12.0956 6.03032
426 2 16.8966 11.5058 6.3396
560 2 17.796 9.92886 10.16
635 2 15.4714 9.50632 7.61091
448 2 18.3481 12.3824 10.6098
419 2 12.5786 9.29517 4.94303
285 2 20.1883 10.0121 11.2169
51 1 17.3467 11.8212 20.6483
399 2 13.2677 10.2433 14.1414
42 1 17.6289 10.9166 14.1366
367 2 18.0538 10.3291 12.7117
639 2 16.0429 10.7467 14.3495
480 2 15.8157 12.1737 20.3306
180 1 11.0314 10.0279 18.255
568 2 14.4721 10.0025 16.2918
60 1 13.6242 11.1889 16.9884
7 1 14.7491 9.88205 14.6945
554 2 14.1475 11.6702 18.419
345 2 17.571 10.2447 20.4836
20 1 18.6718 9.56822 11.4606
307 2 12.1112 10.7527 17.2501
107 1 14.2857 12.2981 19.8905
176 1 10.5565 11.064 11.3689
488 2 18.5585 9.96806 15.0749
608 2 10.4552 10.2823 14.8946
632 2 11.2985 10.2373 12.5105
154 1 11.7118 9.79954 13.9939
366 2 17.9492 12.4789 14.3184
506 2 10.1731 11.4035 18.686
611 2 13.3739 11.5728 21.0048
424 2 13.684 12.3344 15.8433
252 2 11.4736 12.2162 10.7078
163 1 12.3404 14.2822 2.4342
614 2 19.9777 12.6037 2.99477
376 2 15.9262 14.8566 7.78205
394 2 10.9614 14.2105 9.18721
597 2 12.7849 12.8757 1.82998
309 2 12.1246 14.0744 4.02336
59 1 12.5691 13.4316 5.42439
598 2 17.7458 13.9485 5.45563
505 2 11.0669 14.8788 1.67838
264 2 13.9459 14.054 6.01715
199 1 14.3965 14.4278 7.50995
268 2 20.3367 14.8554 1.74484
594 2 14.2143 13.1211 8.42484
359 2 18.2546 14.3254 9.05543
332 2 11.5282 13.7192 6.6071
75 1 18.8829 13.8844 10.4829
6 1 17.9198 12.3718 5.46722
196 1 10.423 14.2353 7.64981
142 1 11.5902 13.8491 10.6299
520 2 20.4639 13.7734 10.3787
215 1 17.3492 15.4023 8.31963
646 2 13.0889 14.3336 10.9814
389 2 17.7515 14.7776 18.2112
13 1 14.4669 13.9896 11.7671
292 2 10.8372 14.3292 11.9844
149 1 13.9401 15.2565 19.0475
103 1 17.6838 13.9885 14.7696
270 2 11.7721 13.2047 14.13
559 2 19.0478 14.8052 15.0377
123 1 10.6514 14.2573 13.5787
457 2 16.9615 14.906 13.6809
135 1 13.3262 13.3209 14.6513
277 2 14.1379 13.4764 13.262
189 1 18.9182 13.9466 18.9195
23 1 16.5306 15.117 17.2242
267 2 16.7359 14.0337 16.0616
429 2 20.0334 13.3476 17.9283
647 2 13.3626 14.8149 15.2476
589 2 18.2184 14.8749 11.52
350 2 13.8347 13.8461 19.7922
314 2 19.5529 14.9566 19.9974
461 2 15.1431 15.07 17.997
613 2 15.5768 15.1501 11.6562
449 2 14.9702 12.7332 10.9126
329 2 18.2713 12.7108 19.7028
474 2 13.843 17.6395 1.00305
232 2 14.4782 17.4798 9.47799
561 2 11.7701 17.0959 9.61136
117 1 13.5286 17.0159 2.43574
90 1 10.3213 17.763 9.92544
257 2 19.3022 15.959 4.75245
81 1 16.0769 17.5672 4.21843
526 2 12.2278 17.6785 3.11063
481 2 16.6283 16.2565 4.94569
379 2 14.7394 17.3496 3.41512
200 1 20.0319 15.6345 0.370814
147 1 13.1179 17.0407 8.7276
85 1 16.0372 17.8449 9.26531
434 2 17.2918 18.006 3.29219
552 2 16.9603 16.5542 9.36193
273 2 13.477 15.6338 8.04895
431 2 18.1096 15.9361 7.03463
363 2 12.958 18.124 7.54286
301 2 16.3815 17.7337 0.389858
355 2 13.4296 15.4368 2.28525
208 1 17.9425 15.5382 5.48764
601 2 16.1461 18.3646 7.76113
485 2 12.5812 15.7395 18.3353
459 2 14.3227 16.5359 19.946
576 2 20.0663 16.956 16.1265
254 2 20.207 16.6902 13.5124
458 2 10.2648 16.5609 17.3412
556 2 11.9326 18.2912 18.3467
609 2 17.3472 17.1979 12.4483
541 2 13.4241 16.8222 13.6019
132 1 17.4511 18.4164 20.9725
167 1 17.0968 18.1242 16.2925
94 1 11.7838 16.9003 17.5703
27 1 12.6249 16.154 14.803
106 1 13.793 18.3003 13.1663
120 1 20.2083 15.9042 14.9205
587 2 16.7334 16.5978 16.625
641 2 12.4373 17.0465 16.1009
432 2 17.4693 18.3038 14.7303
17 1 19.9707 18.3451 16.9657
137 1 14.4014 18.0104 20.591
523 2 11.2235 15.6436 14.2025
173 1 17.0034 15.6426 12.2534
644 2 14.9827 18.5225 12.1594
548 2 18.1828 16.9799 20.996
411 2 18.4023 18.5732 17.0774
392 2 17.8272 20.5638 3.24068
377 2 12.0269 19.9551 9.78797
416 2 16.4818 19.0618 10.178
4 1 12.1385 20.8468 1.35533
308 2 12.6993 20.1447 2.69519
155 1 18.3739 19.0985 2.93724
319 2 19.7137 18.965 3.815
229 2 10.6072 19.6087 4.07745
545 2 11.1996 19.7074 0.64035
139 1 12.1016 19.1437 3.77225
467 2 12.8474 19.1907 5.16558
105 1 13.0504 19.4972 6.70085
9 1 10.9413 20.2173 8.58048
242 2 14.5097 20.1153 6.92049
438 2 17.1826 20.5587 6.75533
219 2 11.8153 20.352 7.25716
64 1 15.9851 19.5234 6.66672
262 2 13.5172 21.2797 0.590736
298 2 18.6374 18.8161 1.38784
634 2 19.722 21.2814 7.3786
331 2 15.9413 18.7568 5.27412
156 1 11.705 19.7716 11.3628
164 1 15.8491 19.6899 11.492
287 2 15.8319 21.3071 20.4692
55 1 17.1953 21.0221 19.6113
169 1 12.8753 19.5875 18.4489
383 2 17.456 19.4327 19.7135
305 2 16.9443 19.8622 12.6297
539 2 14.9682 20.9227 11.0528
627 2 18.5409 21.6931 20.2215
49 1 14.5904 19.8065 15.8577
385 2 13.4869 19.8541 16.998
442 2 14.0029 19.105 19.4831
530 2 14.9791 21.2767 15.4035
543 2 12.6185 19.0342 12.4026
527 2 15.8245 19.0379 16.5232
330 2 12.1411 20.9447 18.7942
352 2 11.3857 21.2227 11.8662
600 2 19.2903 18.8881 12.8985
234 2 14.1564 19.0216 14.5418
567 2 10.4576 18.7627 11.1849
127 1 17.7601 18.5941 13.1869
