ITEM: TIMESTEP
1
ITEM: NUMBER OF ATOMS
648
ITEM: BOX BOUNDS xy xz yz pp pp pp
-0.599526 21.1656 -0.322389
0.0870298 21.7611 -0.506371
0.309624 21.0852 0.453236
ITEM: ATOMS id type x y z
121 1 7.1193 0.673146 0.670833
218 2 7.07215 2.20364 1.17955
418 2 9.84005 2.08376 7.10034
272 2 4.00223 1.48957 1.69312
645 2 8.1115 0.887552 5.77357
293 2 10.4025 1.52974 4.48321
115 1 3.12291 2.01179 2.93637
626 2 9.10733 2.25126 2.57934
621 2 1.94617 0.94993 3.02406
108 1 5.57794 1.68683 4.62553
275 2 4.09124 2.13061 4.18951
194 1 9.29151 1.97211 5.59706
372 2 6.63405 2.39939 3.68101
98 1 2.16487 2.90482 7.99644
77 1 7.60884 2.88765 2.52639
440 2 5.66099 2.06708 6.18147
518 2 3.5384 3.10843 7.24309
630 2 1.14002 1.7952 7.40842
508 2 2.46343 2.23589 9.45706
30 1 1.83302 1.08776 10.429
220 2 0.61512 0.690425 0.754957
538 2 10.1465 2.92293 9.66026
133 1 0.609394 0.302402 7.79884
62 1 0.771941 0.183321 2.2619
97 1 0.0471065 1.96301 17.3384
3 1 6.20355 2.83783 12.149
643 2 7.85732 0.94095 20.4666
435 2 3.29243 2.49191 19.9558
403 2 6.83071 1.3645 12.0961
408 2 4.49956 2.44476 15.049
406 2 2.30783 2.08743 13.8978
511 2 0.724955 1.86848 11.2888
73 1 0.982097 1.60952 14.6422
207 1 3.65021 2.94287 13.7672
24 1 8.97634 1.77599 19.7047
244 2 9.00749 1.55265 15.7652
50 1 4.83809 1.73594 16.4515
39 1 7.95594 1.19514 16.9309
378 2 1.1385 1.50412 16.2614
340 2 4.17324 2.67823 17.5577
233 2 6.43293 1.52161 16.5943
316 2 8.37278 2.03412 18.2403
368 2 9.22188 3.1081 20.5308
437 2 4.65404 2.74369 12.5483
95 1 3.65478 1.35052 20.9901
586 2 5.195 0.925444 20.7685
602 2 0.0140818 1.37009 18.8356
299 2 -0.143766 2.76303 14.4779
153 1 3.14926 4.98868 2.51849
159 1 6.34833 4.60547 9.54555
37 1 5.08522 3.36369 6.91576
144 1 8.78927 5.62278 2.27116
422 2 7.65499 4.49005 2.52158
321 2 4.05637 5.1651 1.20161
266 2 9.47937 5.04237 0.969949
178 1 9.45518 4.96248 5.06653
472 2 9.96787 6.25854 8.08201
549 2 4.18531 5.38975 3.67979
104 1 0.270524 5.11074 8.9498
463 2 9.71414 5.43308 3.563
300 2 5.26611 4.57148 5.8741
349 2 8.87295 3.47153 5.15649
384 2 1.39084 4.29651 8.14929
356 2 5.37736 5.86435 9.91088
183 1 4.80523 5.87246 5.06222
507 2 7.78848 5.23977 9.2278
249 2 2.6192 3.49912 2.64962
250 2 5.8121 3.84497 8.24646
342 2 8.4516 6.12372 5.52708
358 2 1.95757 6.04653 2.40289
557 2 -0.0543842 4.10767 10.1932
486 2 9.15849 4.44242 11.8791
303 2 6.35781 3.56668 10.7406
174 1 8.33177 4.7822 13.2352
286 2 5.77557 6.20993 20.7209
338 2 9.19701 4.49183 14.5701
192 1 2.78053 5.7349 14.739
243 2 2.51128 4.52847 18.5243
274 2 3.16255 4.47592 13.822
628 2 2.21067 5.04746 16.0843
354 2 5.09382 4.31959 19.2188
36 1 1.35778 4.83574 17.4412
134 1 6.22642 5.4349 19.3942
493 2 0.504951 6.18099 17.6125
110 1 9.09181 4.68701 20.3872
468 2 7.71714 4.90003 19.5627
401 2 7.0387 3.81385 13.1523
289 2 8.0431 6.35672 13.3083
612 2 0.36879 3.55429 17.4408
125 1 3.74412 3.54169 18.8418
251 2 10.1634 4.43499 17.2149
8 1 10.3195 3.6586 11.0861
152 1 4.28884 7.04099 9.84105
279 2 4.88883 8.52419 10.0104
171 1 0.912911 7.01103 1.66419
91 1 6.98837 8.16181 1.86052
294 2 4.05023 8.92913 6.58878
584 2 5.67656 7.21937 1.87649
436 2 1.8217 8.05008 0.825053
581 2 3.57155 6.54062 5.84604
427 2 8.05483 8.77353 5.73978
304 2 1.50916 8.95178 10.4734
470 2 6.04928 6.90995 5.21303
2 1 7.42513 7.29922 5.94504
497 2 7.47198 7.11763 7.55298
32 1 3.181 7.60374 6.95734
255 2 8.60859 7.6854 9.80918
271 2 3.62747 7.04463 8.37105
441 2 8.21303 7.11304 2.07554
454 2 1.6756 8.14682 6.80499
216 1 8.45708 9.04869 10.6198
86 1 8.50154 6.56164 8.69016
371 2 0.803538 6.4976 9.5194
76 1 5.02671 6.32354 0.714316
570 2 6.91158 8.92231 0.422381
119 1 1.49033 7.35325 10.6828
537 2 9.81063 6.89142 17.9481
311 2 8.24797 8.70243 12.192
374 2 8.58325 8.56011 14.7932
320 2 6.19983 8.01811 13.8126
82 1 4.95543 7.99464 14.8139
136 1 7.7845 7.92983 13.5241
357 2 0.621164 7.06201 11.9929
269 2 9.89526 9.30452 17.1791
577 2 5.52157 8.15313 16.3052
146 1 0.175393 6.78308 13.4985
111 1 6.14348 8.06627 17.7435
381 2 1.20415 8.66217 17.8887
471 2 9.98031 9.20208 19.4912
414 2 3.59477 7.80851 20.6725
494 2 7.7011 8.40312 17.6464
223 2 8.48883 7.76188 19.952
477 2 5.65604 9.2078 18.7612
83 1 -0.0542131 7.68061 17.7786
193 1 9.08484 8.2238 18.3909
603 2 4.08015 6.6629 14.8139
361 2 1.58599 6.7074 14.2823
503 2 3.02515 6.87008 10.8261
114 1 2.64925 9.07994 20.9537
237 2 4.07694 9.32363 14.738
209 1 9.41479 8.58712 20.9596
425 2 6.04573 6.55463 18.2578
236 2 0.201892 10.3822 7.06568
1 1 6.01922 10.6143 3.46818
181 1 3.81828 10.268 5.70159
447 2 4.77315 10.2958 4.41943
451 2 2.22967 10.1422 5.41039
43 1 9.07962 9.92613 6.24244
19 1 5.06761 12.1593 7.82858
410 2 8.57235 10.6466 7.57181
52 1 5.4757 10.0038 10.199
499 2 5.0362 11.1281 9.10858
74 1 4.62985 11.0826 0.827583
336 2 9.28419 11.4093 2.68958
574 2 5.55676 11.3365 2.1087
550 2 4.21614 11.484 6.65504
109 1 8.63486 11.9878 4.0314
66 1 9.97376 10.8478 1.39686
290 2 7.08894 11.5697 4.15785
640 2 3.93159 9.65771 1.12671
386 2 9.28796 11.1475 5.21783
339 2 1.0338 11.6164 10.1985
397 2 7.0815 9.77746 10.1954
113 1 8.13425 12.1173 8.02652
456 2 9.45085 9.3802 1.02717
450 2 9.78495 9.944 10.4616
79 1 0.938218 9.37883 6.06478
430 2 6.79938 9.28873 2.97239
346 2 6.63777 12.271 7.49484
619 2 8.17643 12.3714 9.59838
433 2 3.51453 12.21 0.789401
404 2 0.171398 10.2079 14.8751
326 2 5.12369 10.5618 11.6746
313 2 1.37183 10.5583 12.588
476 2 2.61255 11.284 14.869
47 1 6.75206 11.6321 15.4595
572 2 9.12818 12.1812 20.8901
58 1 1.22358 11.1367 14.069
482 2 8.0274 10.8089 16.0041
191 1 3.81271 10.5998 15.6951
44 1 0.866785 10.2915 11.0823
172 1 8.82048 12.018 19.3145
88 1 6.17714 10.2623 19.8471
217 2 5.08152 11.3316 20.3312
324 2 0.886519 11.3001 18.0078
302 2 7.52991 11.0019 19.3216
185 1 1.91905 10.0684 18.1435
283 2 9.30822 11.9611 11.841
565 2 5.25462 11.2883 15.9749
46 1 5.74786 11.6352 12.6668
455 2 6.61463 11.1419 13.9149
544 2 3.10328 10.2543 17.0885
140 1 9.20033 9.72982 15.7342
478 2 2.40595 9.95701 19.6524
278 2 6.5361 14.8155 3.08875
71 1 0.711546 13.0637 9.56705
317 2 1.42677 13.1408 2.23237
211 1 2.81908 13.4401 1.54643
260 2 3.95947 14.0403 2.50042
501 2 0.13755 12.7766 8.09706
197 1 0.0737855 13.7902 2.7899
230 2 8.72243 13.5663 3.88979
131 1 8.04977 15.0036 3.61414
225 2 0.43344 14.6182 4.109
380 2 4.5964 13.6782 8.01464
421 2 1.94165 14.0405 9.63284
353 2 9.15725 13.2325 7.50187
213 1 4.21512 15.225 8.15847
15 1 5.13932 15.1168 2.3598
297 2 2.46114 14.5192 0.408166
206 1 2.79057 14.9438 10.6465
571 2 4.05355 15.4019 9.76968
78 1 8.15347 12.8304 11.1275
204 1 4.96784 15.586 19.9212
453 2 0.671455 15.18 14.8357
487 2 2.97974 13.9964 11.9038
636 2 9.09193 13.9645 14.0976
35 1 7.84828 14.5249 14.9646
210 1 3.88542 14.0541 13.219
396 2 2.97934 14.1422 14.5148
80 1 2.08029 14.9783 19.5783
620 2 4.74357 12.7158 13.2627
162 1 1.48134 13.8307 14.9672
566 2 7.08605 13.2068 15.5044
284 2 8.53349 15.322 20.8068
529 2 3.65058 14.9117 19.3294
364 2 1.25621 13.3247 16.4617
201 1 7.79503 14.825 19.4757
617 2 1.32735 13.7211 18.9802
512 2 6.23762 14.6445 19.7409
631 2 8.41341 13.4875 18.8417
10 1 0.597814 12.8659 17.8389
227 2 8.25085 14.415 11.0765
391 2 4.74017 15.3715 12.8915
417 2 0.797008 12.6884 14.034
610 2 6.74606 12.4771 11.7506
259 2 6.91118 15.403 14.0203
464 2 2.29492 18.1033 6.75363
553 2 10.2261 17.1542 0.5302
637 2 8.83641 15.8076 2.44843
495 2 8.19293 15.7425 5.01909
296 2 4.61222 16.5393 2.84732
28 1 9.81125 15.7183 1.15697
390 2 2.82748 15.6659 7.48476
241 2 9.66967 17.7448 5.42259
29 1 8.91889 16.5663 6.1905
593 2 0.576075 16.3045 6.20265
276 2 7.20575 15.9466 9.21974
528 2 9.89245 15.6661 7.10378
596 2 7.74968 17.1888 7.08013
473 2 5.29162 16.3148 7.66541
87 1 1.4534 17.6226 10.3145
61 1 6.61822 17.0373 8.18601
515 2 0.55468 17.2135 3.74494
532 2 1.14427 17.1475 8.79965
112 1 1.65527 16.7412 7.31153
484 2 9.27426 16.7712 10.3927
150 1 4.79451 18.1042 2.70012
118 1 0.0135732 16.0292 4.71827
34 1 7.94733 15.9107 10.6293
633 2 6.41634 18.4486 8.93905
256 2 5.35395 15.2824 0.754617
407 2 6.92894 16.4986 11.7127
402 2 -0.0882862 18.2746 18.3627
184 1 0.721668 17.7017 19.6144
160 1 6.03556 16.307 13.0306
519 2 5.63407 17.7667 13.5171
624 2 8.33437 18.2182 17.1551
165 1 8.64774 16.6369 17.2282
546 2 5.02933 17.042 19.2241
618 2 -0.268799 17.1623 20.749
328 2 1.51301 16.3904 19.0889
460 2 7.85198 16.0688 18.4816
536 2 2.05153 16.3004 11.0226
291 2 0.19276 17.9914 11.2253
57 1 4.93742 18.6016 18.7976
592 2 8.32017 15.6066 16.0501
263 2 8.73896 19.0518 1.22971
334 2 4.69337 18.8148 4.12124
205 1 7.57379 19.3877 2.27844
122 1 0.405317 18.8064 3.61935
492 2 0.650719 19.8022 2.37984
498 2 7.04082 20.858 1.87296
395 2 4.76041 20.2526 9.76911
235 2 1.32066 19.4123 4.78289
100 1 4.94474 19.9914 5.14775
315 2 6.24842 19.8818 6.05061
513 2 3.77068 18.7207 1.63472
16 1 9.32443 19.2169 4.89808
38 1 2.14177 19.5735 6.15648
253 2 8.1648 19.2972 3.77595
578 2 3.5958 20.1947 5.97045
18 1 7.47618 20.7585 6.62328
280 2 1.23789 20.4645 7.10505
579 2 7.0285 20.8511 8.16427
101 1 6.3268 20.0114 9.36617
423 2 8.8432 20.006 6.21115
583 2 6.30326 18.4093 2.1873
322 2 2.57345 18.7918 10.367
258 2 0.604683 21.4631 9.37374
409 2 5.23277 21.3407 4.34885
224 2 10.1742 18.8771 8.92309
5 1 9.45638 19.1863 20.986
525 2 8.91797 19.3765 19.4575
56 1 7.93796 19.4431 18.1532
490 2 6.56033 20.2344 13.2179
343 2 2.54694 21.1895 20.8875
228 2 0.423654 21.2978 14.2727
588 2 6.43247 19.1579 18.6432
306 2 0.727022 18.8 13.6698
203 1 5.26167 19.3236 13.5009
373 2 4.60869 19.6889 14.9057
67 1 0.773122 19.8561 14.8836
569 2 4.26942 19.6245 12.2409
375 2 3.90977 21.4742 16.5931
143 1 3.68432 19.9329 16.1995
281 2 2.17893 19.7745 15.6569
558 2 7.89129 20.8739 17.4018
33 1 3.55006 20.0009 10.8364
428 2 4.14547 19.3082 19.9945
573 2 4.13487 18.9729 17.4266
141 1 7.27864 21.1661 12.1259
245 2 -0.321842 19.4319 15.979
188 1 2.86317 19.6276 20.9196
398 2 2.62343 21.3186 10.992
405 2 1.71318 18.7459 20.2688
248 2 8.80052 21.5291 12.4181
288 2 7.1079 20.392 10.7213
585 2 11.422 0.783104 1.94244
521 2 15.8699 1.41052 1.35458
509 2 14.3962 1.16907 8.93939
198 1 16.4457 2.28149 2.56884
337 2 17.9367 1.86649 2.93639
22 1 14.6935 2.97001 4.99355
323 2 15.4708 2.13437 3.86127
393 2 18.8818 0.973792 5.20334
26 1 15.2037 1.11514 10.3275
158 1 18.8611 0.773294 3.61392
514 2 16.6913 1.61552 9.94769
475 2 14.1055 2.0855 6.22005
622 2 12.1815 2.15785 8.11782
606 2 18.0821 1.70521 7.71753
202 1 13.7554 2.11302 7.80838
54 1 10.6257 1.93442 8.4785
348 2 19.3085 2.09412 10.0074
151 1 17.9237 2.29835 9.20252
25 1 18.6205 0.561769 6.73044
221 2 20.3269 0.591579 2.9941
282 2 10.5526 0.375607 8.92092
170 1 10.6569 1.86992 2.88992
48 1 10.6158 1.52461 15.5453
524 2 14.6086 2.05631 11.4896
446 2 12.4538 2.37606 18.4513
168 1 14.0215 2.59314 18.2571
370 2 14.7712 2.26484 14.2154
387 2 10.5951 2.45159 12.1313
128 1 14.7228 3.00288 12.7805
190 1 20.1624 1.43667 20.2486
177 1 17.9814 1.78181 17.1552
517 2 14.4378 1.9637 16.847
413 2 17.4696 0.62202 18.1974
68 1 15.3293 1.58225 15.5571
444 2 16.8485 1.927 16.0312
516 2 19.5221 1.51455 16.766
648 2 10.9458 0.799983 14.1855
531 2 11.1439 0.872968 16.8944
69 1 20.3765 2.79118 10.9821
533 2 14.622 1.82776 19.5353
420 2 19.4743 2.89862 20.2247
92 1 11.6141 1.00205 18.4239
145 1 14.8366 0.988295 20.8926
443 2 18.2265 3.14613 18.0105
535 2 11.1294 3.04421 15.3715
84 1 10.5765 0.940385 12.6407
605 2 10.3842 1.09619 19.4192
604 2 19.6746 3.24342 12.3232
65 1 15.3155 4.73073 1.40041
562 2 13.9446 3.9611 1.75774
344 2 16.4009 3.8222 2.12377
53 1 16.1275 5.51446 6.10699
629 2 14.8406 5.85612 7.03038
445 2 10.7194 4.91749 6.04742
502 2 13.5444 3.86739 4.24726
195 1 12.7779 4.23396 2.85023
638 2 15.7638 4.05448 5.54004
295 2 14.3494 3.5661 8.17637
14 1 18.2167 5.30743 8.45454
415 2 17.3601 5.54055 7.13426
72 1 14.087 5.12641 8.25096
335 2 19.8028 5.2562 8.19628
365 2 17.7648 3.88342 9.05904
187 1 11.2764 5.86968 7.21157
599 2 12.5098 5.35364 8.07467
226 2 12.5043 5.76908 2.39379
341 2 14.6893 5.66605 9.61419
238 2 11.5679 3.19636 2.78434
479 2 11.7802 5.888 13.2807
157 1 19.8181 3.85372 13.7987
465 2 17.8064 5.60996 12.2074
31 1 17.1289 4.8247 13.4314
102 1 12.6226 5.2826 12.0779
439 2 20.5221 5.30166 13.7259
590 2 18.3172 4.16195 14.2943
623 2 10.402 5.15792 19.6375
607 2 11.6111 4.61907 11.0378
616 2 13.5933 4.13297 12.6355
595 2 16.1915 5.88045 14.224
240 2 11.212 5.82518 15.6193
522 2 14.7036 4.02235 18.3529
489 2 12.2083 6.2357 18.2204
400 2 16.3602 5.99394 18.5009
99 1 10.7447 5.60368 18.1405
564 2 14.9775 5.27078 20.6071
318 2 18.9753 5.35839 19.6318
40 1 15.7276 4.77775 19.308
222 2 16.1471 3.74869 12.7823
63 1 18.4612 3.86092 19.451
462 2 16.9206 3.87971 19.9026
45 1 10.3845 4.43363 15.6292
360 2 20.8955 6.22425 0.645844
547 2 13.7311 8.05227 1.80976
642 2 11.1191 7.50283 0.996389
11 1 15.3361 7.84696 1.84146
551 2 20.9164 7.80585 2.67166
124 1 12.6003 6.98764 1.33336
265 2 14.2182 8.13391 9.56946
148 1 11.9787 8.71422 6.30332
325 2 11.8392 7.13943 6.41805
214 1 19.9562 8.61517 3.64244
469 2 16.1635 8.25187 0.510653
41 1 17.0502 7.93149 4.37358
555 2 18.5821 7.82774 3.92741
582 2 16.1391 8.38421 3.11821
491 2 17.0049 9.01811 5.56151
542 2 16.4135 6.58665 4.96869
166 1 14.6405 6.96555 10.5624
333 2 15.3751 6.22889 1.93612
239 2 12.9168 9.19112 7.52077
362 2 20.8005 8.92598 4.97714
591 2 10.4892 9.24606 6.47043
21 1 14.1335 9.34876 8.55069
369 2 17.97 6.35938 9.64154
419 2 12.6008 9.27018 4.93269
138 1 15.8652 7.42822 17.9488
261 2 20.1923 7.96504 14.0773
500 2 20.0827 8.29318 16.5382
452 2 18.5601 7.98244 11.6223
186 1 19.9249 9.12074 15.1815
563 2 15.1215 8.4286 14.2298
327 2 11.8038 8.24026 14.4029
161 1 12.1231 6.68539 14.6314
510 2 16.0775 7.1944 11.193
483 2 15.8313 7.31824 16.37
129 1 15.2478 6.97464 14.9163
310 2 12.1444 8.85659 18.6774
496 2 18.0012 7.61024 20.7567
126 1 12.8824 7.45717 19.0293
351 2 16.6706 8.52432 18.7769
615 2 12.6561 7.15987 20.6026
540 2 14.3774 7.55688 18.5332
182 1 16.9775 8.78682 20.3353
412 2 19.9829 7.68443 19.0949
93 1 17.6388 6.79022 11.1473
179 1 19.3046 6.79895 20.2516
466 2 13.6927 6.51484 14.9711
231 2 13.5105 6.53018 11.5968
382 2 16.4027 11.7988 9.10666
504 2 19.5035 10.0208 2.98945
246 2 13.712 10.7814 2.9408
12 1 16.0979 10.1225 6.27718
312 2 14.0731 10.6969 9.40082
575 2 14.8589 10.389 5.30239
130 1 13.497 10.5342 4.50073
70 1 17.856 11.3396 9.51115
580 2 12.7554 11.8468 5.09099
96 1 14.8721 12.0623 9.4878
625 2 19.0287 11.3068 8.42986
89 1 18.8577 11.477 2.82479
116 1 13.0448 11.3109 1.58786
534 2 18.174 11.6798 1.41064
347 2 11.5589 10.717 1.51186
175 1 20.2073 11.6373 7.37946
247 2 17.8239 11.6945 4.02161
388 2 19.4099 12.075 6.06734
426 2 16.8951 11.5091 6.35868
560 2 17.8099 9.91722 10.2156
635 2 15.4472 9.51548 7.61491
448 2 18.3576 12.3714 10.6588
252 2 11.4742 12.1924 10.657
285 2 20.2222 9.99143 11.2222
51 1 17.3164 11.832 20.6622
399 2 13.2636 10.2847 14.1393
42 1 17.6572 10.9113 14.1714
367 2 18.125 10.3212 12.7602
639 2 16.0593 10.7759 14.323
480 2 15.7816 12.1768 20.3541
180 1 11.0291 10.0447 18.2351
568 2 14.4834 10.0933 16.271
60 1 13.6105 11.2589 16.9719
7 1 14.7534 9.92977 14.6778
554 2 14.1308 11.7177 18.4114
345 2 17.556 10.2593 20.4789
20 1 18.7101 9.55214 11.4982
307 2 12.1084 10.7816 17.2368
107 1 14.258 12.3152 19.895
176 1 10.5645 11.0429 11.333
488 2 18.5397 9.93872 15.1279
608 2 10.4511 10.2946 14.8792
632 2 11.3076 10.2389 12.4905
154 1 11.7137 9.82008 13.9821
366 2 18.0073 12.4623 14.3879
506 2 10.1539 11.4146 18.6579
611 2 13.3324 11.5771 20.9889
424 2 13.6389 12.4372 15.8546
163 1 12.34 14.29 2.44326
614 2 19.9507 12.6303 3.00748
376 2 15.9545 14.7996 7.7583
394 2 10.9437 14.2088 9.16486
597 2 12.8086 12.8908 1.84069
309 2 12.1092 14.0693 4.02835
59 1 12.5592 13.4043 5.41726
598 2 17.7721 13.9217 5.40591
505 2 11.0686 14.8691 1.66912
264 2 13.9527 13.9952 6.00623
199 1 14.4214 14.3724 7.49311
268 2 20.3589 14.8712 1.74881
594 2 14.236 13.0781 8.42469
359 2 18.2648 14.2685 9.06781
332 2 11.5255 13.6941 6.60357
75 1 18.8829 13.8761 10.5136
6 1 17.9352 12.3442 5.474
196 1 10.4122 14.2309 7.62582
142 1 11.5851 13.8267 10.5946
520 2 20.4657 13.7761 10.4151
215 1 17.3764 15.3394 8.30615
646 2 13.0798 14.315 10.9478
389 2 17.7622 14.8196 18.2306
13 1 14.4409 13.985 11.7645
292 2 10.8281 14.2788 11.9545
149 1 13.9488 15.272 19.0611
103 1 17.7061 13.9743 14.8054
270 2 11.709 13.2018 14.1299
559 2 19.0422 14.8496 15.0445
123 1 10.5587 14.192 13.534
457 2 16.9472 14.8202 13.6864
135 1 13.2563 13.3954 14.644
277 2 14.0801 13.5048 13.26
189 1 18.9059 13.9568 18.9379
23 1 16.5365 15.1307 17.2431
267 2 16.7571 14.0361 16.0953
429 2 19.9998 13.3358 17.9383
647 2 13.2366 14.9234 15.1597
589 2 18.2003 14.883 11.5276
350 2 13.8142 13.8657 19.8088
314 2 19.5668 14.9516 20.0117
461 2 15.1539 15.0674 18.0188
613 2 15.5465 15.15 11.6772
449 2 14.9683 12.7255 10.9323
329 2 18.2286 12.7376 19.7196
474 2 13.8615 17.6504 1.04759
232 2 14.5558 17.45 9.39491
561 2 11.8601 17.0633 9.63005
117 1 13.5358 17.0338 2.48089
90 1 10.4622 17.7562 10.0747
257 2 19.3339 15.9557 4.74567
81 1 16.099 17.5637 4.25048
526 2 12.2441 17.7152 3.15437
481 2 16.6603 16.2476 4.96088
379 2 14.7551 17.3464 3.45678
200 1 20.0519 15.644 0.370581
147 1 13.1732 16.9991 8.69884
85 1 16.12 17.8213 9.2584
434 2 17.3079 18.0188 3.32401
552 2 17.0047 16.5057 9.33518
273 2 13.509 15.5861 8.02432
431 2 18.1524 15.8625 7.02762
363 2 12.9816 18.081 7.51693
301 2 16.3961 17.7355 0.410533
355 2 13.4156 15.4581 2.32088
208 1 17.9772 15.5098 5.4713
601 2 16.2872 18.4228 7.79263
485 2 12.6193 15.7715 18.314
459 2 14.3281 16.5365 19.9805
576 2 20.2023 16.9381 16.1314
254 2 20.1398 16.7546 13.5007
458 2 10.1908 16.4775 17.5913
556 2 11.9064 18.2936 18.375
609 2 17.2664 17.1647 12.5527
541 2 13.0954 16.9742 13.5562
132 1 17.4651 18.4228 20.9861
167 1 17.1835 18.1195 16.3684
94 1 11.7081 16.893 17.6265
27 1 12.3794 16.2161 14.7561
106 1 13.7597 18.3755 13.2512
120 1 20.2217 15.9275 14.8811
587 2 16.712 16.6102 16.6349
641 2 12.156 17.0599 16.0822
432 2 17.5914 18.3092 14.8146
17 1 20.0657 18.3154 16.9826
137 1 14.4097 18.0102 20.6284
523 2 11.0155 15.6076 14.1795
173 1 16.9751 15.6094 12.2891
644 2 14.8263 18.4664 12.0886
548 2 18.2004 16.9875 21.005
411 2 18.4982 18.4393 17.1889
212 1 20.5796 18.1003 12.7105
392 2 17.8475 20.5734 3.25676
377 2 12.1411 19.9908 9.88844
416 2 16.5347 18.9728 10.2624
4 1 12.1328 20.8524 1.34255
308 2 12.7024 20.1665 2.68674
155 1 18.3919 19.106 2.95717
319 2 19.74 18.974 3.82402
229 2 10.628 19.6609 4.10951
545 2 11.1946 19.7138 0.626127
139 1 12.1191 19.1913 3.79482
467 2 12.8718 19.2602 5.18343
105 1 13.0765 19.4873 6.73248
9 1 11.024 20.2346 8.69946
242 2 14.5395 20.0879 6.97564
438 2 17.1778 20.6349 6.70945
219 2 11.8595 20.3254 7.34737
64 1 16.0263 19.5477 6.68478
262 2 13.5036 21.2835 0.565495
298 2 18.6476 18.8179 1.40716
634 2 19.7078 21.3226 7.35967
331 2 15.9552 18.7449 5.3133
156 1 11.8174 19.8933 11.4771
164 1 15.7904 19.6103 11.5099
287 2 15.8216 21.3118 20.4599
55 1 17.195 21.0307 19.6188
169 1 12.8909 19.5589 18.4518
383 2 17.4627 19.4444 19.7322
305 2 16.796 19.7752 12.7342
539 2 15.0109 20.886 10.9994
627 2 18.5353 21.7047 20.2385
49 1 14.7041 19.7409 15.9123
385 2 13.556 19.7273 17.0086
442 2 13.9956 19.0931 19.5162
530 2 14.9459 21.2196 15.3941
543 2 12.7276 19.4479 12.6861
527 2 15.9886 19.1246 16.63
330 2 12.1834 20.9455 18.7362
352 2 11.2829 21.3349 11.7846
600 2 19.2139 18.9177 12.8097
234 2 14.3869 18.8203 14.6461
567 2 10.7344 18.6975 11.3569
127 1 17.7266 18.5694 13.2442
