LAMMPS (7 Dec 2015)
Reading data file ...
  triclinic box = (0 0 0) to (23.3007 23.3007 23.3007) with tilt (0 0 0)
  2 by 2 by 3 MPI processor grid
  reading atoms ...
  1008 atoms
Bisection: Getting new map
Scanning dump file ...
Reading snapshot from dump file ...
  triclinic box = (0 0 0) to (23.3007 23.3007 23.3007) with tilt (0 0 0)
  1008 atoms before read
  1008 atoms in snapshot
  0 atoms purged
  1008 atoms replaced
  0 atoms trimmed
  0 atoms added
  1008 atoms after read
Scanning dump file ...
Reading snapshot from dump file ...
  triclinic box = (0 0 0) to (23.3007 23.3007 23.3007) with tilt (0 0 0)
  1008 atoms before read
  1008 atoms in snapshot
  0 atoms purged
  1008 atoms replaced
  0 atoms trimmed
  0 atoms added
  1008 atoms after read
CR_UPDATE- 23.300680	23.300680	23.300680	0.000000	0.000000	0.000000
For k = 0, applying strain of 0.995
Changing box ...
  triclinic box = (0.0582517 0 0) to (23.2424 23.3007 23.3007) with tilt (0 0 0)
WARNING: Resetting reneighboring criteria during minimization (../min.cpp:168)
Ewald initialization ...
  G vector (1/distance) = 0.365089
  estimated absolute RMS force accuracy = 1.92191e-05
  estimated relative force accuracy = 1.33469e-06
  KSpace vectors: actual max1d max3d = 2088 10 4630
                  kxmax kymax kzmax  = 10 10 10
Neighbor list info ...
  2 neighbor list requests
  update every 1 steps, delay 0 steps, check yes
  max neighbors/atom: 2000, page size: 100000
  master list distance cutoff = 11
  ghost atom cutoff = 11
Setting up cg style minimization ...
  Unit style: metal
Memory usage per processor = 4.56136 Mbytes
Step Temp E_pair E_mol TotEng Press 
       0           10   -18273.352            0    -18272.05     4760.424 
      14           10   -18273.503            0   -18272.201    1252.7114 
Loop time of 0.205263 on 12 procs for 14 steps with 1008 atoms

99.5% CPU use with 12 MPI tasks x no OpenMP threads

Minimization stats:
  Stopping criterion = linesearch alpha is zero
  Energy initial, next-to-last, final = 
        -18273.3520136     -18273.5029251     -18273.5029251
  Force two-norm initial, final = 1.84556 0.198642
  Force max component initial, final = 0.165968 0.0214808
  Final line search alpha, max atom move = 2.38419e-07 5.12141e-09
  Iterations, force evaluations = 14 71

MPI task timing breakdown:
Section |  min time  |  avg time  |  max time  |%varavg| %total
---------------------------------------------------------------
Pair    | 0.073344   | 0.078825   | 0.082582   |   0.8 | 38.40
Kspace  | 0.11286    | 0.11566    | 0.11736    |   0.4 | 56.35
Neigh   | 0          | 0          | 0          |   0.0 |  0.00
Comm    | 0.0076625  | 0.0094595  | 0.013944   |   1.9 |  4.61
Output  | 0          | 0          | 0          |   0.0 |  0.00
Modify  | 0          | 0          | 0          |   0.0 |  0.00
Other   |            | 0.001322   |            |       |  0.64

Nlocal:    84 ave 86 max 79 min
Histogram: 1 0 1 0 0 2 0 1 4 3
Nghost:    2619.67 ave 2636 max 2594 min
Histogram: 2 0 0 2 0 1 1 0 3 3
Neighs:    18725.6 ave 19278 max 17501 min
Histogram: 1 0 0 1 1 1 2 0 3 3

Total # of neighbors = 224707
Ave neighs/atom = 222.924
Neighbor list builds = 0
Dangerous builds = 0
CR_UPDATE- 23.300680	23.300680	23.300680	0.000000	0.000000	0.000000
For k = 1, applying strain of 0.996667
Changing box ...
  triclinic box = (0.0388306 0 0) to (23.2618 23.3007 23.3007) with tilt (0 0 0)
WARNING: Resetting reneighboring criteria during minimization (../min.cpp:168)
Ewald initialization ...
  G vector (1/distance) = 0.365078
  estimated absolute RMS force accuracy = 1.92793e-05
  estimated relative force accuracy = 1.33888e-06
  KSpace vectors: actual max1d max3d = 2084 10 4630
                  kxmax kymax kzmax  = 10 10 10
Setting up cg style minimization ...
  Unit style: metal
Memory usage per processor = 4.56136 Mbytes
Step Temp E_pair E_mol TotEng Press 
      14           10   -18273.522            0    -18272.22    1153.1493 
      31           10   -18273.587            0   -18272.285   -1209.8175 
Loop time of 0.215986 on 12 procs for 17 steps with 1008 atoms

100.0% CPU use with 12 MPI tasks x no OpenMP threads

Minimization stats:
  Stopping criterion = linesearch alpha is zero
  Energy initial, next-to-last, final = 
        -18273.5219449     -18273.5868175     -18273.5868175
  Force two-norm initial, final = 1.22243 0.107408
  Force max component initial, final = 0.109602 0.0096242
  Final line search alpha, max atom move = 9.53674e-07 9.17836e-09
  Iterations, force evaluations = 17 73

MPI task timing breakdown:
Section |  min time  |  avg time  |  max time  |%varavg| %total
---------------------------------------------------------------
Pair    | 0.074708   | 0.08244    | 0.087696   |   1.2 | 38.17
Kspace  | 0.11733    | 0.12154    | 0.12447    |   0.6 | 56.27
Neigh   | 0          | 0          | 0          |   0.0 |  0.00
Comm    | 0.0086451  | 0.010606   | 0.015416   |   1.9 |  4.91
Output  | 0          | 0          | 0          |   0.0 |  0.00
Modify  | 0          | 0          | 0          |   0.0 |  0.00
Other   |            | 0.001401   |            |       |  0.65

Nlocal:    84 ave 86 max 79 min
Histogram: 1 0 1 0 0 2 0 1 4 3
Nghost:    2619.67 ave 2636 max 2594 min
Histogram: 2 0 0 2 0 1 1 0 3 3
Neighs:    18693.8 ave 19235 max 17477 min
Histogram: 1 0 0 1 1 1 2 0 3 3

Total # of neighbors = 224326
Ave neighs/atom = 222.546
Neighbor list builds = 0
Dangerous builds = 0
CR_UPDATE- 23.300680	23.300680	23.300680	0.000000	0.000000	0.000000
For k = 2, applying strain of 0.998333
Changing box ...
  triclinic box = (0.0194211 0 0) to (23.2813 23.3007 23.3007) with tilt (0 0 0)
WARNING: Resetting reneighboring criteria during minimization (../min.cpp:168)
Ewald initialization ...
  G vector (1/distance) = 0.365066
  estimated absolute RMS force accuracy = 1.9345e-05
  estimated relative force accuracy = 1.34344e-06
  KSpace vectors: actual max1d max3d = 2084 10 4630
                  kxmax kymax kzmax  = 10 10 10
Setting up cg style minimization ...
  Unit style: metal
Memory usage per processor = 4.56136 Mbytes
Step Temp E_pair E_mol TotEng Press 
      31           10   -18273.604            0   -18272.302   -2413.3929 
      42           10    -18273.62            0   -18272.318   -3528.0122 
Loop time of 0.179457 on 12 procs for 11 steps with 1008 atoms

99.9% CPU use with 12 MPI tasks x no OpenMP threads

Minimization stats:
  Stopping criterion = linesearch alpha is zero
  Energy initial, next-to-last, final = 
        -18273.6039303     -18273.6195209     -18273.6195209
  Force two-norm initial, final = 0.607073 0.0880601
  Force max component initial, final = 0.0542722 0.0110053
  Final line search alpha, max atom move = 9.53674e-07 1.04955e-08
  Iterations, force evaluations = 11 61

MPI task timing breakdown:
Section |  min time  |  avg time  |  max time  |%varavg| %total
---------------------------------------------------------------
Pair    | 0.062935   | 0.068238   | 0.072916   |   1.0 | 38.02
Kspace  | 0.097739   | 0.10151    | 0.10315    |   0.5 | 56.56
Neigh   | 0          | 0          | 0          |   0.0 |  0.00
Comm    | 0.0070288  | 0.0086179  | 0.012566   |   1.7 |  4.80
Output  | 0          | 0          | 0          |   0.0 |  0.00
Modify  | 0          | 0          | 0          |   0.0 |  0.00
Other   |            | 0.001096   |            |       |  0.61

Nlocal:    84 ave 86 max 79 min
Histogram: 1 0 1 0 0 2 0 1 4 3
Nghost:    2614 ave 2634 max 2587 min
Histogram: 2 0 2 1 1 0 0 1 1 4
Neighs:    18660.5 ave 19194 max 17441 min
Histogram: 1 0 0 1 1 1 1 1 3 3

Total # of neighbors = 223926
Ave neighs/atom = 222.149
Neighbor list builds = 0
Dangerous builds = 0
CR_UPDATE- 23.300680	23.300680	23.300680	0.000000	0.000000	0.000000
For k = 3, applying strain of 1
Changing box ...
  triclinic box = (0 0 0) to (23.3007 23.3007 23.3007) with tilt (0 0 0)
WARNING: Resetting reneighboring criteria during minimization (../min.cpp:168)
Ewald initialization ...
  G vector (1/distance) = 0.365055
  estimated absolute RMS force accuracy = 1.94166e-05
  estimated relative force accuracy = 1.34841e-06
  KSpace vectors: actual max1d max3d = 2084 10 4630
                  kxmax kymax kzmax  = 10 10 10
Setting up cg style minimization ...
  Unit style: metal
Memory usage per processor = 4.56136 Mbytes
Step Temp E_pair E_mol TotEng Press 
      42           10   -18273.601            0     -18272.3    -5944.226 
      44           10   -18273.601            0     -18272.3   -5941.7916 
Loop time of 0.0686902 on 12 procs for 2 steps with 1008 atoms

99.5% CPU use with 12 MPI tasks x no OpenMP threads

Minimization stats:
  Stopping criterion = linesearch alpha is zero
  Energy initial, next-to-last, final = 
         -18273.601313     -18273.6013225     -18273.6013225
  Force two-norm initial, final = 0.00482554 0.00323379
  Force max component initial, final = 0.000346992 0.00039228
  Final line search alpha, max atom move = 0.000976562 3.83085e-07
  Iterations, force evaluations = 2 23

MPI task timing breakdown:
Section |  min time  |  avg time  |  max time  |%varavg| %total
---------------------------------------------------------------
Pair    | 0.024074   | 0.026179   | 0.027379   |   0.6 | 38.11
Kspace  | 0.038071   | 0.038739   | 0.039248   |   0.2 | 56.40
Neigh   | 0          | 0          | 0          |   0.0 |  0.00
Comm    | 0.0025558  | 0.0033626  | 0.0051317  |   1.2 |  4.90
Output  | 0          | 0          | 0          |   0.0 |  0.00
Modify  | 0          | 0          | 0          |   0.0 |  0.00
Other   |            | 0.0004096  |            |       |  0.60

Nlocal:    84 ave 86 max 79 min
Histogram: 1 0 1 0 0 2 0 1 4 3
Nghost:    2611.5 ave 2632 max 2585 min
Histogram: 2 0 2 1 0 1 0 1 3 2
Neighs:    18631 ave 19164 max 17412 min
Histogram: 1 0 0 1 1 1 2 0 3 3

Total # of neighbors = 223572
Ave neighs/atom = 221.798
Neighbor list builds = 0
Dangerous builds = 0
CR_UPDATE- 23.300680	23.300680	23.300680	0.000000	0.000000	0.000000
For k = 4, applying strain of 1.00167
Changing box ...
  triclinic box = (-0.0194211 0 0) to (23.3201 23.3007 23.3007) with tilt (0 0 0)
WARNING: Resetting reneighboring criteria during minimization (../min.cpp:168)
Ewald initialization ...
  G vector (1/distance) = 0.365044
  estimated absolute RMS force accuracy = 1.94944e-05
  estimated relative force accuracy = 1.35381e-06
  KSpace vectors: actual max1d max3d = 2084 10 4630
                  kxmax kymax kzmax  = 10 10 10
Setting up cg style minimization ...
  Unit style: metal
Memory usage per processor = 4.56136 Mbytes
Step Temp E_pair E_mol TotEng Press 
      44           10   -18273.516            0   -18272.214   -9437.8918 
      50           10   -18273.529            0   -18272.228   -8413.2076 
      57           10   -18273.532            0    -18272.23   -8296.7544 
Loop time of 0.182561 on 12 procs for 13 steps with 1008 atoms

99.8% CPU use with 12 MPI tasks x no OpenMP threads

Minimization stats:
  Stopping criterion = linesearch alpha is zero
  Energy initial, next-to-last, final = 
        -18273.5158791     -18273.5320087     -18273.5320087
  Force two-norm initial, final = 0.602709 0.070445
  Force max component initial, final = 0.0535099 0.00945208
  Final line search alpha, max atom move = 1.90735e-06 1.80284e-08
  Iterations, force evaluations = 13 63

MPI task timing breakdown:
Section |  min time  |  avg time  |  max time  |%varavg| %total
---------------------------------------------------------------
Pair    | 0.064607   | 0.069822   | 0.073037   |   0.8 | 38.25
Kspace  | 0.10043    | 0.10273    | 0.10475    |   0.4 | 56.27
Neigh   | 0          | 0          | 0          |   0.0 |  0.00
Comm    | 0.0068817  | 0.008838   | 0.013029   |   1.8 |  4.84
Output  | 2.408e-05  | 2.4994e-05 | 3.314e-05  |   0.0 |  0.01
Modify  | 0          | 0          | 0          |   0.0 |  0.00
Other   |            | 0.001151   |            |       |  0.63

Nlocal:    84 ave 86 max 79 min
Histogram: 1 0 1 0 0 2 0 1 4 3
Nghost:    2608.75 ave 2628 max 2583 min
Histogram: 2 0 1 1 1 1 0 0 4 2
Neighs:    18602.5 ave 19124 max 17391 min
Histogram: 1 0 0 1 1 1 1 1 3 3

Total # of neighbors = 223230
Ave neighs/atom = 221.458
Neighbor list builds = 0
Dangerous builds = 0
CR_UPDATE- 23.300680	23.300680	23.300680	0.000000	0.000000	0.000000
For k = 5, applying strain of 1.00333
Changing box ...
  triclinic box = (-0.0388306 0 0) to (23.3395 23.3007 23.3007) with tilt (0 0 0)
WARNING: Resetting reneighboring criteria during minimization (../min.cpp:168)
Ewald initialization ...
  G vector (1/distance) = 0.365032
  estimated absolute RMS force accuracy = 1.95788e-05
  estimated relative force accuracy = 1.35968e-06
  KSpace vectors: actual max1d max3d = 2084 10 4630
                  kxmax kymax kzmax  = 10 10 10
Setting up cg style minimization ...
  Unit style: metal
Memory usage per processor = 4.56136 Mbytes
Step Temp E_pair E_mol TotEng Press 
      57           10    -18273.35            0   -18272.048   -12892.951 
      76           10   -18273.414            0   -18272.112   -10576.097 
Loop time of 0.232917 on 12 procs for 19 steps with 1008 atoms

99.7% CPU use with 12 MPI tasks x no OpenMP threads

Minimization stats:
  Stopping criterion = linesearch alpha is zero
  Energy initial, next-to-last, final = 
        -18273.3498472     -18273.4137457     -18273.4137457
  Force two-norm initial, final = 1.19667 0.0885436
  Force max component initial, final = 0.105915 0.0103293
  Final line search alpha, max atom move = 9.53674e-07 9.85076e-09
  Iterations, force evaluations = 19 79

MPI task timing breakdown:
Section |  min time  |  avg time  |  max time  |%varavg| %total
---------------------------------------------------------------
Pair    | 0.080349   | 0.088113   | 0.092858   |   1.1 | 37.83
Kspace  | 0.12779    | 0.1308     | 0.13315    |   0.5 | 56.16
Neigh   | 0          | 0          | 0          |   0.0 |  0.00
Comm    | 0.0088873  | 0.012414   | 0.017836   |   2.0 |  5.33
Output  | 0          | 0          | 0          |   0.0 |  0.00
Modify  | 0          | 0          | 0          |   0.0 |  0.00
Other   |            | 0.001586   |            |       |  0.68

Nlocal:    84 ave 86 max 79 min
Histogram: 1 0 1 0 0 2 0 1 4 3
Nghost:    2606.33 ave 2625 max 2579 min
Histogram: 2 0 0 2 1 0 1 1 3 2
Neighs:    18571.1 ave 19094 max 17363 min
Histogram: 1 0 0 1 1 1 2 0 3 3

Total # of neighbors = 222853
Ave neighs/atom = 221.084
Neighbor list builds = 0
Dangerous builds = 0
CR_UPDATE- 23.300680	23.300680	23.300680	0.000000	0.000000	0.000000
For k = 6, applying strain of 1.005
Changing box ...
  triclinic box = (-0.0582517 0 0) to (23.3589 23.3007 23.3007) with tilt (0 0 0)
WARNING: Resetting reneighboring criteria during minimization (../min.cpp:168)
Ewald initialization ...
  G vector (1/distance) = 0.365021
  estimated absolute RMS force accuracy = 1.96704e-05
  estimated relative force accuracy = 1.36604e-06
  KSpace vectors: actual max1d max3d = 2084 10 4630
                  kxmax kymax kzmax  = 10 10 10
Setting up cg style minimization ...
  Unit style: metal
Memory usage per processor = 4.56136 Mbytes
Step Temp E_pair E_mol TotEng Press 
      76           10   -18273.098            0   -18271.797   -16312.593 
      97           10   -18273.245            0   -18271.944   -12852.371 
Loop time of 0.247485 on 12 procs for 21 steps with 1008 atoms

99.9% CPU use with 12 MPI tasks x no OpenMP threads

Minimization stats:
  Stopping criterion = linesearch alpha is zero
  Energy initial, next-to-last, final = 
        -18273.0984786     -18273.2452373     -18273.2452373
  Force two-norm initial, final = 1.78406 0.114903
  Force max component initial, final = 0.157405 0.0232036
  Final line search alpha, max atom move = 4.76837e-07 1.10643e-08
  Iterations, force evaluations = 21 83

MPI task timing breakdown:
Section |  min time  |  avg time  |  max time  |%varavg| %total
---------------------------------------------------------------
Pair    | 0.085655   | 0.093034   | 0.098742   |   1.0 | 37.59
Kspace  | 0.1361     | 0.14053    | 0.14245    |   0.5 | 56.78
Neigh   | 0          | 0          | 0          |   0.0 |  0.00
Comm    | 0.0099938  | 0.012315   | 0.017815   |   2.0 |  4.98
Output  | 0          | 0          | 0          |   0.0 |  0.00
Modify  | 0          | 0          | 0          |   0.0 |  0.00
Other   |            | 0.00161    |            |       |  0.65

Nlocal:    84 ave 86 max 79 min
Histogram: 1 0 1 0 0 2 0 1 4 3
Nghost:    2605.33 ave 2624 max 2579 min
Histogram: 2 0 0 2 1 0 1 1 3 2
Neighs:    18541.6 ave 19064 max 17345 min
Histogram: 1 0 0 1 1 1 2 0 3 3

Total # of neighbors = 222499
Ave neighs/atom = 220.733
Neighbor list builds = 0
Dangerous builds = 0
CR_UPDATE- 23.300680	23.300680	23.300680	0.000000	0.000000	0.000000
For k = 0, applying strain of 0.995
Changing box ...
  triclinic box = (0 0.0582517 0) to (23.3007 23.2424 23.3007) with tilt (0 0 0)
WARNING: Resetting reneighboring criteria during minimization (../min.cpp:168)
Ewald initialization ...
  G vector (1/distance) = 0.365089
  estimated absolute RMS force accuracy = 1.92191e-05
  estimated relative force accuracy = 1.33469e-06
  KSpace vectors: actual max1d max3d = 2088 10 4630
                  kxmax kymax kzmax  = 10 10 10
Setting up cg style minimization ...
  Unit style: metal
Memory usage per processor = 4.56136 Mbytes
Step Temp E_pair E_mol TotEng Press 
      97           10   -18273.652            0    -18272.35    4811.4051 
     100           10   -18273.751            0   -18272.449    2547.3841 
     113           10   -18273.794            0   -18272.493    1390.3733 
Loop time of 0.2185 on 12 procs for 16 steps with 1008 atoms

100.1% CPU use with 12 MPI tasks x no OpenMP threads

Minimization stats:
  Stopping criterion = linesearch alpha is zero
  Energy initial, next-to-last, final = 
        -18273.6518307      -18273.794251      -18273.794251
  Force two-norm initial, final = 1.76247 0.191124
  Force max component initial, final = 0.166874 0.017176
  Final line search alpha, max atom move = 2.38419e-07 4.09508e-09
  Iterations, force evaluations = 16 75

MPI task timing breakdown:
Section |  min time  |  avg time  |  max time  |%varavg| %total
---------------------------------------------------------------
Pair    | 0.077844   | 0.08376    | 0.087676   |   0.9 | 38.33
Kspace  | 0.12014    | 0.12259    | 0.12471    |   0.3 | 56.10
Neigh   | 0          | 0          | 0          |   0.0 |  0.00
Comm    | 0.0084672  | 0.010744   | 0.015934   |   2.0 |  4.92
Output  | 2.2888e-05 | 2.4418e-05 | 3.2902e-05 |   0.1 |  0.01
Modify  | 0          | 0          | 0          |   0.0 |  0.00
Other   |            | 0.001382   |            |       |  0.63

Nlocal:    84 ave 86 max 79 min
Histogram: 1 0 1 0 0 2 0 1 4 3
Nghost:    2626.25 ave 2645 max 2603 min
Histogram: 2 1 1 1 1 0 0 1 0 5
Neighs:    18726.7 ave 19280 max 17507 min
Histogram: 1 0 0 1 1 1 2 0 3 3

Total # of neighbors = 224720
Ave neighs/atom = 222.937
Neighbor list builds = 0
Dangerous builds = 0
CR_UPDATE- 23.300680	23.300680	23.300680	0.000000	0.000000	0.000000
For k = 1, applying strain of 0.996667
Changing box ...
  triclinic box = (0 0.0388306 0) to (23.3007 23.2618 23.3007) with tilt (0 0 0)
WARNING: Resetting reneighboring criteria during minimization (../min.cpp:168)
Ewald initialization ...
  G vector (1/distance) = 0.365078
  estimated absolute RMS force accuracy = 1.92793e-05
  estimated relative force accuracy = 1.33888e-06
  KSpace vectors: actual max1d max3d = 2084 10 4630
                  kxmax kymax kzmax  = 10 10 10
Setting up cg style minimization ...
  Unit style: metal
Memory usage per processor = 4.56136 Mbytes
Step Temp E_pair E_mol TotEng Press 
     113           10   -18273.721            0   -18272.419    1186.9326 
     133           10   -18273.783            0   -18272.482   -1113.5984 
Loop time of 0.228743 on 12 procs for 20 steps with 1008 atoms

99.9% CPU use with 12 MPI tasks x no OpenMP threads

Minimization stats:
  Stopping criterion = linesearch alpha is zero
  Energy initial, next-to-last, final = 
        -18273.7209597     -18273.7832337     -18273.7832337
  Force two-norm initial, final = 1.16765 0.0962474
  Force max component initial, final = 0.110142 0.00989069
  Final line search alpha, max atom move = 9.53674e-07 9.43249e-09
  Iterations, force evaluations = 20 79

MPI task timing breakdown:
Section |  min time  |  avg time  |  max time  |%varavg| %total
---------------------------------------------------------------
Pair    | 0.080438   | 0.087725   | 0.092522   |   1.0 | 38.35
Kspace  | 0.12519    | 0.12892    | 0.13125    |   0.4 | 56.36
Neigh   | 0          | 0          | 0          |   0.0 |  0.00
Comm    | 0.0085948  | 0.01061    | 0.015609   |   2.0 |  4.64
Output  | 0          | 0          | 0          |   0.0 |  0.00
Modify  | 0          | 0          | 0          |   0.0 |  0.00
Other   |            | 0.001489   |            |       |  0.65

Nlocal:    84 ave 86 max 79 min
Histogram: 1 0 1 0 0 2 0 1 4 3
Nghost:    2622.25 ave 2643 max 2596 min
Histogram: 2 0 2 1 0 1 1 0 1 4
Neighs:    18693.5 ave 19243 max 17472 min
Histogram: 1 0 0 1 1 1 2 0 3 3

Total # of neighbors = 224322
Ave neighs/atom = 222.542
Neighbor list builds = 0
Dangerous builds = 0
CR_UPDATE- 23.300680	23.300680	23.300680	0.000000	0.000000	0.000000
For k = 2, applying strain of 0.998333
Changing box ...
  triclinic box = (0 0.0194211 0) to (23.3007 23.2813 23.3007) with tilt (0 0 0)
WARNING: Resetting reneighboring criteria during minimization (../min.cpp:168)
Ewald initialization ...
  G vector (1/distance) = 0.365066
  estimated absolute RMS force accuracy = 1.9345e-05
  estimated relative force accuracy = 1.34344e-06
  KSpace vectors: actual max1d max3d = 2084 10 4630
                  kxmax kymax kzmax  = 10 10 10
Setting up cg style minimization ...
  Unit style: metal
Memory usage per processor = 4.56136 Mbytes
Step Temp E_pair E_mol TotEng Press 
     133           10   -18273.704            0   -18272.402   -2396.8285 
     147           10   -18273.721            0   -18272.419   -3501.2882 
Loop time of 0.308195 on 12 procs for 14 steps with 1008 atoms

99.9% CPU use with 12 MPI tasks x no OpenMP threads

Minimization stats:
  Stopping criterion = linesearch alpha is zero
  Energy initial, next-to-last, final = 
        -18273.7039931     -18273.7208298     -18273.7208298
  Force two-norm initial, final = 0.580026 0.0633004
  Force max component initial, final = 0.0545288 0.00466167
  Final line search alpha, max atom move = 1.90735e-06 8.89143e-09
  Iterations, force evaluations = 14 103

MPI task timing breakdown:
Section |  min time  |  avg time  |  max time  |%varavg| %total
---------------------------------------------------------------
Pair    | 0.10802    | 0.11659    | 0.12249    |   1.1 | 37.83
Kspace  | 0.16951    | 0.17381    | 0.17554    |   0.4 | 56.40
Neigh   | 0          | 0          | 0          |   0.0 |  0.00
Comm    | 0.012883   | 0.015964   | 0.022814   |   2.2 |  5.18
Output  | 0          | 0          | 0          |   0.0 |  0.00
Modify  | 0          | 0          | 0          |   0.0 |  0.00
Other   |            | 0.001832   |            |       |  0.59

Nlocal:    84 ave 86 max 79 min
Histogram: 1 0 1 0 0 2 0 1 4 3
Nghost:    2617.75 ave 2636 max 2592 min
Histogram: 2 0 2 1 0 1 0 1 1 4
Neighs:    18661.8 ave 19207 max 17440 min
Histogram: 1 0 0 1 1 1 2 0 3 3

Total # of neighbors = 223942
Ave neighs/atom = 222.165
Neighbor list builds = 0
Dangerous builds = 0
CR_UPDATE- 23.300680	23.300680	23.300680	0.000000	0.000000	0.000000
For k = 3, applying strain of 1
Changing box ...
  triclinic box = (0 0 0) to (23.3007 23.3007 23.3007) with tilt (0 0 0)
WARNING: Resetting reneighboring criteria during minimization (../min.cpp:168)
Ewald initialization ...
  G vector (1/distance) = 0.365055
  estimated absolute RMS force accuracy = 1.94166e-05
  estimated relative force accuracy = 1.34841e-06
  KSpace vectors: actual max1d max3d = 2084 10 4630
                  kxmax kymax kzmax  = 10 10 10
Setting up cg style minimization ...
  Unit style: metal
Memory usage per processor = 4.56136 Mbytes
Step Temp E_pair E_mol TotEng Press 
     147           10   -18273.601            0     -18272.3    -5944.226 
     149           10   -18273.601            0     -18272.3   -5941.7916 
Loop time of 0.0688499 on 12 procs for 2 steps with 1008 atoms

100.2% CPU use with 12 MPI tasks x no OpenMP threads

Minimization stats:
  Stopping criterion = linesearch alpha is zero
  Energy initial, next-to-last, final = 
         -18273.601313     -18273.6013225     -18273.6013225
  Force two-norm initial, final = 0.00482554 0.00323379
  Force max component initial, final = 0.000346992 0.00039228
  Final line search alpha, max atom move = 0.000976562 3.83085e-07
  Iterations, force evaluations = 2 23

MPI task timing breakdown:
Section |  min time  |  avg time  |  max time  |%varavg| %total
---------------------------------------------------------------
Pair    | 0.024167   | 0.02641    | 0.027694   |   0.6 | 38.36
Kspace  | 0.037797   | 0.038703   | 0.039396   |   0.2 | 56.21
Neigh   | 0          | 0          | 0          |   0.0 |  0.00
Comm    | 0.0026619  | 0.0033066  | 0.0048652  |   1.1 |  4.80
Output  | 0          | 0          | 0          |   0.0 |  0.00
Modify  | 0          | 0          | 0          |   0.0 |  0.00
Other   |            | 0.0004297  |            |       |  0.62

Nlocal:    84 ave 86 max 79 min
Histogram: 1 0 1 0 0 2 0 1 4 3
Nghost:    2611.5 ave 2632 max 2585 min
Histogram: 2 0 2 1 0 1 0 1 3 2
Neighs:    18631 ave 19164 max 17412 min
Histogram: 1 0 0 1 1 1 2 0 3 3

Total # of neighbors = 223572
Ave neighs/atom = 221.798
Neighbor list builds = 0
Dangerous builds = 0
CR_UPDATE- 23.300680	23.300680	23.300680	0.000000	0.000000	0.000000
For k = 4, applying strain of 1.00167
Changing box ...
  triclinic box = (0 -0.0194211 0) to (23.3007 23.3201 23.3007) with tilt (0 0 0)
WARNING: Resetting reneighboring criteria during minimization (../min.cpp:168)
Ewald initialization ...
  G vector (1/distance) = 0.365044
  estimated absolute RMS force accuracy = 1.94944e-05
  estimated relative force accuracy = 1.35381e-06
  KSpace vectors: actual max1d max3d = 2084 10 4630
                  kxmax kymax kzmax  = 10 10 10
Setting up cg style minimization ...
  Unit style: metal
Memory usage per processor = 4.56136 Mbytes
Step Temp E_pair E_mol TotEng Press 
     149           10   -18273.417            0   -18272.116   -9454.5064 
     150           10   -18273.423            0   -18272.121   -9115.9815 
     158           10   -18273.433            0   -18272.131   -8399.3317 
Loop time of 0.172215 on 12 procs for 9 steps with 1008 atoms

99.9% CPU use with 12 MPI tasks x no OpenMP threads

Minimization stats:
  Stopping criterion = linesearch alpha is zero
  Energy initial, next-to-last, final = 
        -18273.4171919     -18273.4331442     -18273.4331442
  Force two-norm initial, final = 0.576561 0.121211
  Force max component initial, final = 0.0535871 0.0249447
  Final line search alpha, max atom move = 4.76837e-07 1.18945e-08
  Iterations, force evaluations = 9 59

MPI task timing breakdown:
Section |  min time  |  avg time  |  max time  |%varavg| %total
---------------------------------------------------------------
Pair    | 0.060165   | 0.065737   | 0.069269   |   1.0 | 38.17
Kspace  | 0.094689   | 0.097052   | 0.098535   |   0.4 | 56.36
Neigh   | 0          | 0          | 0          |   0.0 |  0.00
Comm    | 0.0065184  | 0.0083516  | 0.012446   |   1.8 |  4.85
Output  | 2.3127e-05 | 2.3802e-05 | 3.1233e-05 |   0.0 |  0.01
Modify  | 0          | 0          | 0          |   0.0 |  0.00
Other   |            | 0.001051   |            |       |  0.61

Nlocal:    84 ave 86 max 79 min
Histogram: 1 0 1 0 0 2 0 1 4 3
Nghost:    2607.5 ave 2630 max 2583 min
Histogram: 2 1 0 3 0 0 0 3 2 1
Neighs:    18600.2 ave 19129 max 17385 min
Histogram: 1 0 0 1 1 1 2 0 3 3

Total # of neighbors = 223202
Ave neighs/atom = 221.431
Neighbor list builds = 0
Dangerous builds = 0
CR_UPDATE- 23.300680	23.300680	23.300680	0.000000	0.000000	0.000000
For k = 5, applying strain of 1.00333
Changing box ...
  triclinic box = (0 -0.0388306 0) to (23.3007 23.3395 23.3007) with tilt (0 0 0)
WARNING: Resetting reneighboring criteria during minimization (../min.cpp:168)
Ewald initialization ...
  G vector (1/distance) = 0.365032
  estimated absolute RMS force accuracy = 1.95788e-05
  estimated relative force accuracy = 1.35968e-06
  KSpace vectors: actual max1d max3d = 2084 10 4630
                  kxmax kymax kzmax  = 10 10 10
Setting up cg style minimization ...
  Unit style: metal
Memory usage per processor = 4.56136 Mbytes
Step Temp E_pair E_mol TotEng Press 
     158           10   -18273.145            0   -18271.843   -12923.806 
     169           10   -18273.203            0   -18271.901     -10784.4 
Loop time of 0.188954 on 12 procs for 11 steps with 1008 atoms

99.8% CPU use with 12 MPI tasks x no OpenMP threads

Minimization stats:
  Stopping criterion = linesearch alpha is zero
  Energy initial, next-to-last, final = 
        -18273.1446473     -18273.2027784     -18273.2027784
  Force two-norm initial, final = 1.14498 0.19875
  Force max component initial, final = 0.106064 0.0307238
  Final line search alpha, max atom move = 2.38419e-07 7.32513e-09
  Iterations, force evaluations = 11 65

MPI task timing breakdown:
Section |  min time  |  avg time  |  max time  |%varavg| %total
---------------------------------------------------------------
Pair    | 0.066156   | 0.07198    | 0.076437   |   0.9 | 38.09
Kspace  | 0.10342    | 0.10695    | 0.10861    |   0.4 | 56.60
Neigh   | 0          | 0          | 0          |   0.0 |  0.00
Comm    | 0.0072205  | 0.0088588  | 0.013077   |   1.8 |  4.69
Output  | 0          | 0          | 0          |   0.0 |  0.00
Modify  | 0          | 0          | 0          |   0.0 |  0.00
Other   |            | 0.001167   |            |       |  0.62

Nlocal:    84 ave 86 max 79 min
Histogram: 1 0 1 0 0 2 0 1 4 3
Nghost:    2603.75 ave 2624 max 2581 min
Histogram: 2 1 0 3 0 0 0 3 1 2
Neighs:    18568.8 ave 19101 max 17361 min
Histogram: 1 0 0 1 1 1 2 0 3 3

Total # of neighbors = 222825
Ave neighs/atom = 221.057
Neighbor list builds = 0
Dangerous builds = 0
CR_UPDATE- 23.300680	23.300680	23.300680	0.000000	0.000000	0.000000
For k = 6, applying strain of 1.005
Changing box ...
  triclinic box = (0 -0.0582517 0) to (23.3007 23.3589 23.3007) with tilt (0 0 0)
WARNING: Resetting reneighboring criteria during minimization (../min.cpp:168)
Ewald initialization ...
  G vector (1/distance) = 0.365021
  estimated absolute RMS force accuracy = 1.96704e-05
  estimated relative force accuracy = 1.36604e-06
  KSpace vectors: actual max1d max3d = 2084 10 4630
                  kxmax kymax kzmax  = 10 10 10
Setting up cg style minimization ...
  Unit style: metal
Memory usage per processor = 4.56136 Mbytes
Step Temp E_pair E_mol TotEng Press 
     169           10   -18272.791            0   -18271.489   -16358.482 
     192           10   -18272.936            0   -18271.634   -12926.935 
Loop time of 0.367553 on 12 procs for 23 steps with 1008 atoms

100.0% CPU use with 12 MPI tasks x no OpenMP threads

Minimization stats:
  Stopping criterion = linesearch alpha is zero
  Energy initial, next-to-last, final = 
        -18272.7911083     -18272.9355399     -18272.9355399
  Force two-norm initial, final = 1.70746 0.121952
  Force max component initial, final = 0.157538 0.0125757
  Final line search alpha, max atom move = 4.76837e-07 5.99656e-09
  Iterations, force evaluations = 23 125

MPI task timing breakdown:
Section |  min time  |  avg time  |  max time  |%varavg| %total
---------------------------------------------------------------
Pair    | 0.1293     | 0.13984    | 0.14546    |   1.2 | 38.05
Kspace  | 0.20274    | 0.20586    | 0.20997    |   0.5 | 56.01
Neigh   | 0          | 0          | 0          |   0.0 |  0.00
Comm    | 0.015808   | 0.019527   | 0.028299   |   2.5 |  5.31
Output  | 0          | 0          | 0          |   0.0 |  0.00
Modify  | 0          | 0          | 0          |   0.0 |  0.00
Other   |            | 0.002324   |            |       |  0.63

Nlocal:    84 ave 86 max 79 min
Histogram: 1 0 1 0 0 2 0 1 4 3
Nghost:    2599.42 ave 2618 max 2576 min
Histogram: 2 0 1 2 1 0 0 2 2 2
Neighs:    18536.8 ave 19065 max 17335 min
Histogram: 1 0 0 1 1 1 1 1 3 3

Total # of neighbors = 222441
Ave neighs/atom = 220.676
Neighbor list builds = 0
Dangerous builds = 0
CR_UPDATE- 23.300680	23.300680	23.300680	0.000000	0.000000	0.000000
For k = 0, applying strain of 0.995
Changing box ...
  triclinic box = (0 0 0.0582517) to (23.3007 23.3007 23.2424) with tilt (0 0 0)
WARNING: Resetting reneighboring criteria during minimization (../min.cpp:168)
Ewald initialization ...
  G vector (1/distance) = 0.365089
  estimated absolute RMS force accuracy = 1.92191e-05
  estimated relative force accuracy = 1.33469e-06
  KSpace vectors: actual max1d max3d = 2088 10 4630
                  kxmax kymax kzmax  = 10 10 10
Setting up cg style minimization ...
  Unit style: metal
Memory usage per processor = 4.56136 Mbytes
Step Temp E_pair E_mol TotEng Press 
     192           10   -18273.648            0   -18272.346    4549.4183 
     200           10   -18273.786            0   -18272.484    1252.8312 
     213           10   -18273.801            0   -18272.499    945.13376 
Loop time of 0.248466 on 12 procs for 21 steps with 1008 atoms

99.9% CPU use with 12 MPI tasks x no OpenMP threads

Minimization stats:
  Stopping criterion = linesearch alpha is zero
  Energy initial, next-to-last, final = 
        -18273.6475662     -18273.8009695     -18273.8009695
  Force two-norm initial, final = 1.93218 0.121425
  Force max component initial, final = 0.158552 0.021932
  Final line search alpha, max atom move = 4.76837e-07 1.0458e-08
  Iterations, force evaluations = 21 83

MPI task timing breakdown:
Section |  min time  |  avg time  |  max time  |%varavg| %total
---------------------------------------------------------------
Pair    | 0.085934   | 0.094568   | 0.098744   |   1.0 | 38.06
Kspace  | 0.13619    | 0.13894    | 0.14221    |   0.4 | 55.92
Neigh   | 0          | 0          | 0          |   0.0 |  0.00
Comm    | 0.011192   | 0.013277   | 0.018647   |   1.9 |  5.34
Output  | 2.5988e-05 | 2.6822e-05 | 3.6001e-05 |   0.1 |  0.01
Modify  | 0          | 0          | 0          |   0.0 |  0.00
Other   |            | 0.001654   |            |       |  0.67

Nlocal:    84 ave 86 max 79 min
Histogram: 1 0 1 0 0 2 0 1 4 3
Nghost:    2620.5 ave 2643 max 2597 min
Histogram: 2 1 2 0 1 0 1 2 2 1
Neighs:    18720 ave 19260 max 17491 min
Histogram: 1 0 0 1 1 1 2 0 3 3

Total # of neighbors = 224640
Ave neighs/atom = 222.857
Neighbor list builds = 0
Dangerous builds = 0
CR_UPDATE- 23.300680	23.300680	23.300680	0.000000	0.000000	0.000000
For k = 1, applying strain of 0.996667
Changing box ...
  triclinic box = (0 0 0.0388306) to (23.3007 23.3007 23.2618) with tilt (0 0 0)
WARNING: Resetting reneighboring criteria during minimization (../min.cpp:168)
Ewald initialization ...
  G vector (1/distance) = 0.365078
  estimated absolute RMS force accuracy = 1.92793e-05
  estimated relative force accuracy = 1.33888e-06
  KSpace vectors: actual max1d max3d = 2084 10 4630
                  kxmax kymax kzmax  = 10 10 10
Setting up cg style minimization ...
  Unit style: metal
Memory usage per processor = 4.56136 Mbytes
Step Temp E_pair E_mol TotEng Press 
     213           10   -18273.718            0   -18272.416    1012.9861 
     226           10   -18273.781            0    -18272.48   -1274.0206 
Loop time of 0.308936 on 12 procs for 13 steps with 1008 atoms

99.9% CPU use with 12 MPI tasks x no OpenMP threads

Minimization stats:
  Stopping criterion = linesearch alpha is zero
  Energy initial, next-to-last, final = 
        -18273.7179761     -18273.7813583     -18273.7813583
  Force two-norm initial, final = 1.28033 0.136356
  Force max component initial, final = 0.104655 0.0162173
  Final line search alpha, max atom move = 4.76837e-07 7.733e-09
  Iterations, force evaluations = 13 105

MPI task timing breakdown:
Section |  min time  |  avg time  |  max time  |%varavg| %total
---------------------------------------------------------------
Pair    | 0.10878    | 0.11863    | 0.12412    |   1.1 | 38.40
Kspace  | 0.16883    | 0.17273    | 0.17565    |   0.5 | 55.91
Neigh   | 0          | 0          | 0          |   0.0 |  0.00
Comm    | 0.012942   | 0.015712   | 0.022671   |   2.2 |  5.09
Output  | 0          | 0          | 0          |   0.0 |  0.00
Modify  | 0          | 0          | 0          |   0.0 |  0.00
Other   |            | 0.001859   |            |       |  0.60

Nlocal:    84 ave 86 max 79 min
Histogram: 1 0 1 0 0 2 0 1 4 3
Nghost:    2618.5 ave 2639 max 2593 min
Histogram: 1 1 1 2 0 1 0 1 3 2
Neighs:    18692.7 ave 19232 max 17472 min
Histogram: 1 0 0 1 1 1 2 0 3 3

Total # of neighbors = 224312
Ave neighs/atom = 222.532
Neighbor list builds = 0
Dangerous builds = 0
CR_UPDATE- 23.300680	23.300680	23.300680	0.000000	0.000000	0.000000
For k = 2, applying strain of 0.998333
Changing box ...
  triclinic box = (0 0 0.0194211) to (23.3007 23.3007 23.2813) with tilt (0 0 0)
WARNING: Resetting reneighboring criteria during minimization (../min.cpp:168)
Ewald initialization ...
  G vector (1/distance) = 0.365066
  estimated absolute RMS force accuracy = 1.9345e-05
  estimated relative force accuracy = 1.34344e-06
  KSpace vectors: actual max1d max3d = 2084 10 4630
                  kxmax kymax kzmax  = 10 10 10
Setting up cg style minimization ...
  Unit style: metal
Memory usage per processor = 4.56136 Mbytes
Step Temp E_pair E_mol TotEng Press 
     226           10   -18273.702            0     -18272.4   -2483.3194 
     230           10   -18273.714            0   -18272.412   -3268.8312 
Loop time of 0.15984 on 12 procs for 4 steps with 1008 atoms

100.1% CPU use with 12 MPI tasks x no OpenMP threads

Minimization stats:
  Stopping criterion = linesearch alpha is zero
  Energy initial, next-to-last, final = 
        -18273.7017676     -18273.7138459     -18273.7138459
  Force two-norm initial, final = 0.636096 0.246277
  Force max component initial, final = 0.0518421 0.0265074
  Final line search alpha, max atom move = 1.19209e-07 3.15993e-09
  Iterations, force evaluations = 4 53

MPI task timing breakdown:
Section |  min time  |  avg time  |  max time  |%varavg| %total
---------------------------------------------------------------
Pair    | 0.055869   | 0.060996   | 0.063283   |   0.8 | 38.16
Kspace  | 0.086925   | 0.089129   | 0.091434   |   0.4 | 55.76
Neigh   | 0          | 0          | 0          |   0.0 |  0.00
Comm    | 0.0068116  | 0.008777   | 0.011612   |   1.5 |  5.49
Output  | 0          | 0          | 0          |   0.0 |  0.00
Modify  | 0          | 0          | 0          |   0.0 |  0.00
Other   |            | 0.000938   |            |       |  0.59

Nlocal:    84 ave 86 max 79 min
Histogram: 1 0 1 0 0 2 0 1 4 3
Nghost:    2614.75 ave 2636 max 2589 min
Histogram: 2 0 2 1 1 0 0 1 3 2
Neighs:    18663.6 ave 19201 max 17443 min
Histogram: 1 0 0 1 1 1 2 0 3 3

Total # of neighbors = 223963
Ave neighs/atom = 222.186
Neighbor list builds = 0
Dangerous builds = 0
CR_UPDATE- 23.300680	23.300680	23.300680	0.000000	0.000000	0.000000
For k = 3, applying strain of 1
Changing box ...
  triclinic box = (0 0 0) to (23.3007 23.3007 23.3007) with tilt (0 0 0)
WARNING: Resetting reneighboring criteria during minimization (../min.cpp:168)
Ewald initialization ...
  G vector (1/distance) = 0.365055
  estimated absolute RMS force accuracy = 1.94166e-05
  estimated relative force accuracy = 1.34841e-06
  KSpace vectors: actual max1d max3d = 2084 10 4630
                  kxmax kymax kzmax  = 10 10 10
Setting up cg style minimization ...
  Unit style: metal
Memory usage per processor = 4.56136 Mbytes
Step Temp E_pair E_mol TotEng Press 
     230           10   -18273.601            0     -18272.3    -5944.226 
     232           10   -18273.601            0     -18272.3   -5941.7916 
Loop time of 0.0711146 on 12 procs for 2 steps with 1008 atoms

99.7% CPU use with 12 MPI tasks x no OpenMP threads

Minimization stats:
  Stopping criterion = linesearch alpha is zero
  Energy initial, next-to-last, final = 
         -18273.601313     -18273.6013225     -18273.6013225
  Force two-norm initial, final = 0.00482554 0.00323379
  Force max component initial, final = 0.000346992 0.00039228
  Final line search alpha, max atom move = 0.000976562 3.83085e-07
  Iterations, force evaluations = 2 23

MPI task timing breakdown:
Section |  min time  |  avg time  |  max time  |%varavg| %total
---------------------------------------------------------------
Pair    | 0.024832   | 0.026857   | 0.027885   |   0.5 | 37.77
Kspace  | 0.03873    | 0.03977    | 0.040713   |   0.3 | 55.92
Neigh   | 0          | 0          | 0          |   0.0 |  0.00
Comm    | 0.0030446  | 0.0040273  | 0.0052457  |   1.0 |  5.66
Output  | 0          | 0          | 0          |   0.0 |  0.00
Modify  | 0          | 0          | 0          |   0.0 |  0.00
Other   |            | 0.0004611  |            |       |  0.65

Nlocal:    84 ave 86 max 79 min
Histogram: 1 0 1 0 0 2 0 1 4 3
Nghost:    2611.5 ave 2632 max 2585 min
Histogram: 2 0 2 1 0 1 0 1 3 2
Neighs:    18631 ave 19164 max 17412 min
Histogram: 1 0 0 1 1 1 2 0 3 3

Total # of neighbors = 223572
Ave neighs/atom = 221.798
Neighbor list builds = 0
Dangerous builds = 0
CR_UPDATE- 23.300680	23.300680	23.300680	0.000000	0.000000	0.000000
For k = 4, applying strain of 1.00167
Changing box ...
  triclinic box = (0 0 -0.0194211) to (23.3007 23.3007 23.3201) with tilt (0 0 0)
WARNING: Resetting reneighboring criteria during minimization (../min.cpp:168)
Ewald initialization ...
  G vector (1/distance) = 0.365044
  estimated absolute RMS force accuracy = 1.94944e-05
  estimated relative force accuracy = 1.35381e-06
  KSpace vectors: actual max1d max3d = 2084 10 4630
                  kxmax kymax kzmax  = 10 10 10
Setting up cg style minimization ...
  Unit style: metal
Memory usage per processor = 4.56136 Mbytes
Step Temp E_pair E_mol TotEng Press 
     232           10   -18273.423            0   -18272.121   -9369.6974 
     237           10   -18273.437            0   -18272.136   -8452.4123 
Loop time of 0.160318 on 12 procs for 5 steps with 1008 atoms

100.0% CPU use with 12 MPI tasks x no OpenMP threads

Minimization stats:
  Stopping criterion = linesearch alpha is zero
  Energy initial, next-to-last, final = 
         -18273.423133     -18273.4372621     -18273.4372621
  Force two-norm initial, final = 0.632019 0.200491
  Force max component initial, final = 0.0509307 0.0295941
  Final line search alpha, max atom move = 2.38419e-07 7.05578e-09
  Iterations, force evaluations = 5 53

MPI task timing breakdown:
Section |  min time  |  avg time  |  max time  |%varavg| %total
---------------------------------------------------------------
Pair    | 0.05623    | 0.061141   | 0.063913   |   0.8 | 38.14
Kspace  | 0.087337   | 0.089648   | 0.091527   |   0.4 | 55.92
Neigh   | 0          | 0          | 0          |   0.0 |  0.00
Comm    | 0.0069435  | 0.0085683  | 0.011838   |   1.5 |  5.34
Output  | 0          | 0          | 0          |   0.0 |  0.00
Modify  | 0          | 0          | 0          |   0.0 |  0.00
Other   |            | 0.000961   |            |       |  0.60

Nlocal:    84 ave 86 max 79 min
Histogram: 1 0 1 0 0 2 0 1 4 3
Nghost:    2607.25 ave 2629 max 2583 min
Histogram: 2 1 1 1 1 0 2 0 2 2
Neighs:    18600.9 ave 19136 max 17389 min
Histogram: 1 0 0 1 1 1 2 0 3 3

Total # of neighbors = 223211
Ave neighs/atom = 221.439
Neighbor list builds = 0
Dangerous builds = 0
CR_UPDATE- 23.300680	23.300680	23.300680	0.000000	0.000000	0.000000
For k = 5, applying strain of 1.00333
Changing box ...
  triclinic box = (0 0 -0.0388306) to (23.3007 23.3007 23.3395) with tilt (0 0 0)
WARNING: Resetting reneighboring criteria during minimization (../min.cpp:168)
Ewald initialization ...
  G vector (1/distance) = 0.365032
  estimated absolute RMS force accuracy = 1.95788e-05
  estimated relative force accuracy = 1.35968e-06
  KSpace vectors: actual max1d max3d = 2084 10 4630
                  kxmax kymax kzmax  = 10 10 10
Setting up cg style minimization ...
  Unit style: metal
Memory usage per processor = 4.56136 Mbytes
Step Temp E_pair E_mol TotEng Press 
     237           10   -18273.161            0   -18271.859   -12756.033 
     250           10   -18273.225            0   -18271.923   -10454.675 
     251           10   -18273.225            0   -18271.923   -10454.675 
Loop time of 0.204693 on 12 procs for 14 steps with 1008 atoms

99.6% CPU use with 12 MPI tasks x no OpenMP threads

Minimization stats:
  Stopping criterion = linesearch alpha is zero
  Energy initial, next-to-last, final = 
        -18273.1608093      -18273.224609      -18273.224609
  Force two-norm initial, final = 1.25543 0.144113
  Force max component initial, final = 0.101599 0.0148428
  Final line search alpha, max atom move = 4.76837e-07 7.07761e-09
  Iterations, force evaluations = 14 69

MPI task timing breakdown:
Section |  min time  |  avg time  |  max time  |%varavg| %total
---------------------------------------------------------------
Pair    | 0.072413   | 0.078351   | 0.081577   |   0.9 | 38.28
Kspace  | 0.11173    | 0.11442    | 0.11628    |   0.4 | 55.90
Neigh   | 0          | 0          | 0          |   0.0 |  0.00
Comm    | 0.0084209  | 0.010587   | 0.014684   |   1.7 |  5.17
Output  | 2.5034e-05 | 2.6067e-05 | 3.3855e-05 |   0.0 |  0.01
Modify  | 0          | 0          | 0          |   0.0 |  0.00
Other   |            | 0.001314   |            |       |  0.64

Nlocal:    84 ave 86 max 79 min
Histogram: 1 0 1 0 0 2 0 1 4 3
Nghost:    2605.25 ave 2626 max 2580 min
Histogram: 2 1 1 1 1 0 0 2 2 2
Neighs:    18570.4 ave 19101 max 17354 min
Histogram: 1 0 0 1 1 1 1 1 3 3

Total # of neighbors = 222845
Ave neighs/atom = 221.076
Neighbor list builds = 0
Dangerous builds = 0
CR_UPDATE- 23.300680	23.300680	23.300680	0.000000	0.000000	0.000000
For k = 6, applying strain of 1.005
Changing box ...
  triclinic box = (0 0 -0.0582517) to (23.3007 23.3007 23.3589) with tilt (0 0 0)
WARNING: Resetting reneighboring criteria during minimization (../min.cpp:168)
Ewald initialization ...
  G vector (1/distance) = 0.365021
  estimated absolute RMS force accuracy = 1.96704e-05
  estimated relative force accuracy = 1.36604e-06
  KSpace vectors: actual max1d max3d = 2084 10 4630
                  kxmax kymax kzmax  = 10 10 10
Setting up cg style minimization ...
  Unit style: metal
Memory usage per processor = 4.56136 Mbytes
Step Temp E_pair E_mol TotEng Press 
     251           10   -18272.823            0   -18271.521   -16109.641 
     264           10    -18272.96            0   -18271.659   -12697.526 
Loop time of 0.210351 on 12 procs for 13 steps with 1008 atoms

99.7% CPU use with 12 MPI tasks x no OpenMP threads

Minimization stats:
  Stopping criterion = linesearch alpha is zero
  Energy initial, next-to-last, final = 
        -18272.8227795     -18272.9601692     -18272.9601692
  Force two-norm initial, final = 1.87243 0.237269
  Force max component initial, final = 0.151956 0.0389806
  Final line search alpha, max atom move = 1.19209e-07 4.64685e-09
  Iterations, force evaluations = 13 71

MPI task timing breakdown:
Section |  min time  |  avg time  |  max time  |%varavg| %total
---------------------------------------------------------------
Pair    | 0.073388   | 0.079876   | 0.083807   |   1.0 | 37.97
Kspace  | 0.11483    | 0.11833    | 0.12076    |   0.5 | 56.25
Neigh   | 0          | 0          | 0          |   0.0 |  0.00
Comm    | 0.0083971  | 0.010798   | 0.014877   |   1.7 |  5.13
Output  | 0          | 0          | 0          |   0.0 |  0.00
Modify  | 0          | 0          | 0          |   0.0 |  0.00
Other   |            | 0.001349   |            |       |  0.64

Nlocal:    84 ave 86 max 79 min
Histogram: 1 0 1 0 0 2 0 1 4 3
Nghost:    2603 ave 2626 max 2577 min
Histogram: 2 0 2 1 1 0 2 0 2 2
Neighs:    18536.8 ave 19069 max 17324 min
Histogram: 1 0 0 1 1 1 1 1 3 3

Total # of neighbors = 222441
Ave neighs/atom = 220.676
Neighbor list builds = 0
Dangerous builds = 0
CR_UPDATE- 23.300680	23.300680	23.300680	0.000000	0.000000	0.000000
For k = 0, applying strain of 0.995
Changing box ...
  triclinic box = (0 0 0) to (23.3007 23.3007 23.3007) with tilt (-0.116503 0 0)
WARNING: Resetting reneighboring criteria during minimization (../min.cpp:168)
Ewald initialization ...
  G vector (1/distance) = 0.365055
  estimated absolute RMS force accuracy = 1.94166e-05
  estimated relative force accuracy = 1.34841e-06
  KSpace vectors: actual max1d max3d = 2079 10 4630
                  kxmax kymax kzmax  = 10 10 10
Setting up cg style minimization ...
  Unit style: metal
Memory usage per processor = 4.56136 Mbytes
Step Temp E_pair E_mol TotEng Press 
     264           10   -18273.387            0   -18272.086   -5902.7363 
     276           10    -18273.45            0   -18272.148   -5922.3858 
Loop time of 0.202874 on 12 procs for 12 steps with 1008 atoms

100.0% CPU use with 12 MPI tasks x no OpenMP threads

Minimization stats:
  Stopping criterion = linesearch alpha is zero
  Energy initial, next-to-last, final = 
        -18273.3873432     -18273.4495071     -18273.4495071
  Force two-norm initial, final = 1.25638 0.17384
  Force max component initial, final = 0.121605 0.0166801
  Final line search alpha, max atom move = 2.38419e-07 3.97685e-09
  Iterations, force evaluations = 12 67

MPI task timing breakdown:
Section |  min time  |  avg time  |  max time  |%varavg| %total
---------------------------------------------------------------
Pair    | 0.071234   | 0.077187   | 0.080971   |   0.9 | 38.05
Kspace  | 0.10997    | 0.11343    | 0.11552    |   0.5 | 55.91
Neigh   | 0          | 0          | 0          |   0.0 |  0.00
Comm    | 0.0086477  | 0.010959   | 0.014843   |   1.7 |  5.40
Output  | 0          | 0          | 0          |   0.0 |  0.00
Modify  | 0          | 0          | 0          |   0.0 |  0.00
Other   |            | 0.001297   |            |       |  0.64

Nlocal:    84 ave 86 max 79 min
Histogram: 1 0 1 0 0 2 0 1 4 3
Nghost:    2611.5 ave 2632 max 2585 min
Histogram: 2 0 2 1 0 1 0 1 3 2
Neighs:    18633.8 ave 19175 max 17415 min
Histogram: 1 0 0 1 1 1 2 0 3 3

Total # of neighbors = 223605
Ave neighs/atom = 221.83
Neighbor list builds = 0
Dangerous builds = 0
CR_UPDATE- 23.300680	23.300680	23.300680	0.000000	0.000000	0.000000
For k = 1, applying strain of 0.996667
Changing box ...
  triclinic box = (0 0 0) to (23.3007 23.3007 23.3007) with tilt (-0.077661 0 0)
WARNING: Resetting reneighboring criteria during minimization (../min.cpp:168)
Ewald initialization ...
  G vector (1/distance) = 0.365055
  estimated absolute RMS force accuracy = 1.94166e-05
  estimated relative force accuracy = 1.34841e-06
  KSpace vectors: actual max1d max3d = 2081 10 4630
                  kxmax kymax kzmax  = 10 10 10
Setting up cg style minimization ...
  Unit style: metal
Memory usage per processor = 4.56136 Mbytes
Step Temp E_pair E_mol TotEng Press 
     276           10    -18273.49            0   -18272.188   -5921.9379 
     287           10   -18273.516            0   -18272.214    -5925.885 
Loop time of 0.189096 on 12 procs for 11 steps with 1008 atoms

100.1% CPU use with 12 MPI tasks x no OpenMP threads

Minimization stats:
  Stopping criterion = linesearch alpha is zero
  Energy initial, next-to-last, final = 
        -18273.4897209     -18273.5158801     -18273.5158801
  Force two-norm initial, final = 0.837587 0.129505
  Force max component initial, final = 0.0810334 0.0155541
  Final line search alpha, max atom move = 4.76837e-07 7.41677e-09
  Iterations, force evaluations = 11 63

MPI task timing breakdown:
Section |  min time  |  avg time  |  max time  |%varavg| %total
---------------------------------------------------------------
Pair    | 0.067596   | 0.072326   | 0.074967   |   0.8 | 38.25
Kspace  | 0.10318    | 0.10552    | 0.10713    |   0.4 | 55.80
Neigh   | 0          | 0          | 0          |   0.0 |  0.00
Comm    | 0.0078239  | 0.010014   | 0.013569   |   1.6 |  5.30
Output  | 0          | 0          | 0          |   0.0 |  0.00
Modify  | 0          | 0          | 0          |   0.0 |  0.00
Other   |            | 0.001239   |            |       |  0.66

Nlocal:    84 ave 86 max 79 min
Histogram: 1 0 1 0 0 2 0 1 4 3
Nghost:    2611.5 ave 2632 max 2585 min
Histogram: 2 0 2 1 0 1 0 1 3 2
Neighs:    18631.8 ave 19174 max 17420 min
Histogram: 1 0 0 1 1 1 2 0 3 3

Total # of neighbors = 223582
Ave neighs/atom = 221.808
Neighbor list builds = 0
Dangerous builds = 0
CR_UPDATE- 23.300680	23.300680	23.300680	0.000000	0.000000	0.000000
For k = 2, applying strain of 0.998333
Changing box ...
  triclinic box = (0 0 0) to (23.3007 23.3007 23.3007) with tilt (-0.038842 0 0)
WARNING: Resetting reneighboring criteria during minimization (../min.cpp:168)
Ewald initialization ...
  G vector (1/distance) = 0.365055
  estimated absolute RMS force accuracy = 1.94166e-05
  estimated relative force accuracy = 1.34841e-06
  KSpace vectors: actual max1d max3d = 2082 10 4630
                  kxmax kymax kzmax  = 10 10 10
Setting up cg style minimization ...
  Unit style: metal
Memory usage per processor = 4.56136 Mbytes
Step Temp E_pair E_mol TotEng Press 
     287           10   -18273.558            0   -18272.257   -5935.0826 
     298           10   -18273.567            0   -18272.266   -5931.1354 
Loop time of 0.177019 on 12 procs for 11 steps with 1008 atoms

99.9% CPU use with 12 MPI tasks x no OpenMP threads

Minimization stats:
  Stopping criterion = linesearch alpha is zero
  Energy initial, next-to-last, final = 
        -18273.5583625     -18273.5672272     -18273.5672272
  Force two-norm initial, final = 0.419025 0.0646125
  Force max component initial, final = 0.0405273 0.00784343
  Final line search alpha, max atom move = 1.90735e-06 1.49602e-08
  Iterations, force evaluations = 11 59

MPI task timing breakdown:
Section |  min time  |  avg time  |  max time  |%varavg| %total
---------------------------------------------------------------
Pair    | 0.061703   | 0.067621   | 0.07106    |   0.9 | 38.20
Kspace  | 0.095893   | 0.098809   | 0.10111    |   0.5 | 55.82
Neigh   | 0          | 0          | 0          |   0.0 |  0.00
Comm    | 0.0076435  | 0.0094396  | 0.013097   |   1.6 |  5.33
Output  | 0          | 0          | 0          |   0.0 |  0.00
Modify  | 0          | 0          | 0          |   0.0 |  0.00
Other   |            | 0.001149   |            |       |  0.65

Nlocal:    84 ave 86 max 79 min
Histogram: 1 0 1 0 0 2 0 1 4 3
Nghost:    2611.5 ave 2632 max 2585 min
Histogram: 2 0 2 1 0 1 0 1 3 2
Neighs:    18631.2 ave 19166 max 17415 min
Histogram: 1 0 0 1 1 1 2 0 3 3

Total # of neighbors = 223574
Ave neighs/atom = 221.8
Neighbor list builds = 0
Dangerous builds = 0
CR_UPDATE- 23.300680	23.300680	23.300680	0.000000	0.000000	0.000000
For k = 3, applying strain of 1
Changing box ...
  triclinic box = (0 0 0) to (23.3007 23.3007 23.3007) with tilt (0 0 0)
WARNING: Resetting reneighboring criteria during minimization (../min.cpp:168)
Ewald initialization ...
  G vector (1/distance) = 0.365055
  estimated absolute RMS force accuracy = 1.94166e-05
  estimated relative force accuracy = 1.34841e-06
  KSpace vectors: actual max1d max3d = 2084 10 4630
                  kxmax kymax kzmax  = 10 10 10
Setting up cg style minimization ...
  Unit style: metal
Memory usage per processor = 4.56136 Mbytes
Step Temp E_pair E_mol TotEng Press 
     298           10   -18273.601            0     -18272.3    -5944.226 
     300           10   -18273.601            0     -18272.3   -5941.7916 
Loop time of 0.0707754 on 12 procs for 2 steps with 1008 atoms

99.6% CPU use with 12 MPI tasks x no OpenMP threads

Minimization stats:
  Stopping criterion = linesearch alpha is zero
  Energy initial, next-to-last, final = 
         -18273.601313     -18273.6013225     -18273.6013225
  Force two-norm initial, final = 0.00482554 0.00323379
  Force max component initial, final = 0.000346992 0.00039228
  Final line search alpha, max atom move = 0.000976562 3.83085e-07
  Iterations, force evaluations = 2 23

MPI task timing breakdown:
Section |  min time  |  avg time  |  max time  |%varavg| %total
---------------------------------------------------------------
Pair    | 0.025064   | 0.027193   | 0.028301   |   0.5 | 38.42
Kspace  | 0.038862   | 0.039587   | 0.040249   |   0.2 | 55.93
Neigh   | 0          | 0          | 0          |   0.0 |  0.00
Comm    | 0.0029347  | 0.0035682  | 0.0051403  |   1.1 |  5.04
Output  | 0          | 0          | 0          |   0.0 |  0.00
Modify  | 0          | 0          | 0          |   0.0 |  0.00
Other   |            | 0.0004272  |            |       |  0.60

Nlocal:    84 ave 86 max 79 min
Histogram: 1 0 1 0 0 2 0 1 4 3
Nghost:    2611.5 ave 2632 max 2585 min
Histogram: 2 0 2 1 0 1 0 1 3 2
Neighs:    18631 ave 19164 max 17412 min
Histogram: 1 0 0 1 1 1 2 0 3 3

Total # of neighbors = 223572
Ave neighs/atom = 221.798
Neighbor list builds = 0
Dangerous builds = 0
CR_UPDATE- 23.300680	23.300680	23.300680	0.000000	0.000000	0.000000
For k = 4, applying strain of 1.00167
Changing box ...
  triclinic box = (0 0 0) to (23.3007 23.3007 23.3007) with tilt (0.038842 0 0)
WARNING: Resetting reneighboring criteria during minimization (../min.cpp:168)
Ewald initialization ...
  G vector (1/distance) = 0.365055
  estimated absolute RMS force accuracy = 1.94166e-05
  estimated relative force accuracy = 1.34841e-06
  KSpace vectors: actual max1d max3d = 2082 10 4630
                  kxmax kymax kzmax  = 10 10 10
Setting up cg style minimization ...
  Unit style: metal
Memory usage per processor = 4.56136 Mbytes
Step Temp E_pair E_mol TotEng Press 
     300           10   -18273.617            0   -18272.315   -5948.9175 
     308           10   -18273.623            0   -18272.321   -5949.6612 
Loop time of 0.164543 on 12 procs for 8 steps with 1008 atoms

100.0% CPU use with 12 MPI tasks x no OpenMP threads

Minimization stats:
  Stopping criterion = linesearch alpha is zero
  Energy initial, next-to-last, final = 
        -18273.6166822     -18273.6225458     -18273.6225458
  Force two-norm initial, final = 0.418774 0.0927518
  Force max component initial, final = 0.0404037 0.0195125
  Final line search alpha, max atom move = 9.53674e-07 1.86086e-08
  Iterations, force evaluations = 8 55

MPI task timing breakdown:
Section |  min time  |  avg time  |  max time  |%varavg| %total
---------------------------------------------------------------
Pair    | 0.057621   | 0.062838   | 0.065964   |   0.8 | 38.19
Kspace  | 0.09006    | 0.092361   | 0.094221   |   0.4 | 56.13
Neigh   | 0          | 0          | 0          |   0.0 |  0.00
Comm    | 0.0068927  | 0.0083268  | 0.011978   |   1.6 |  5.06
Output  | 0          | 0          | 0          |   0.0 |  0.00
Modify  | 0          | 0          | 0          |   0.0 |  0.00
Other   |            | 0.001017   |            |       |  0.62

Nlocal:    84 ave 86 max 79 min
Histogram: 1 0 1 0 0 2 0 1 4 3
Nghost:    2611.5 ave 2632 max 2585 min
Histogram: 2 0 2 1 0 1 0 1 3 2
Neighs:    18632.9 ave 19163 max 17412 min
Histogram: 1 0 0 1 1 1 1 1 3 3

Total # of neighbors = 223595
Ave neighs/atom = 221.82
Neighbor list builds = 0
Dangerous builds = 0
CR_UPDATE- 23.300680	23.300680	23.300680	0.000000	0.000000	0.000000
For k = 5, applying strain of 1.00333
Changing box ...
  triclinic box = (0 0 0) to (23.3007 23.3007 23.3007) with tilt (0.077661 0 0)
WARNING: Resetting reneighboring criteria during minimization (../min.cpp:168)
Ewald initialization ...
  G vector (1/distance) = 0.365055
  estimated absolute RMS force accuracy = 1.94166e-05
  estimated relative force accuracy = 1.34841e-06
  KSpace vectors: actual max1d max3d = 2081 10 4630
                  kxmax kymax kzmax  = 10 10 10
Setting up cg style minimization ...
  Unit style: metal
Memory usage per processor = 4.56136 Mbytes
Step Temp E_pair E_mol TotEng Press 
     308           10   -18273.603            0   -18272.301   -5948.7018 
     319           10   -18273.627            0   -18272.326   -5942.2464 
Loop time of 0.188268 on 12 procs for 11 steps with 1008 atoms

100.1% CPU use with 12 MPI tasks x no OpenMP threads

Minimization stats:
  Stopping criterion = linesearch alpha is zero
  Energy initial, next-to-last, final = 
         -18273.602825     -18273.6274826     -18273.6274826
  Force two-norm initial, final = 0.837483 0.129215
  Force max component initial, final = 0.0807934 0.0175499
  Final line search alpha, max atom move = 4.76837e-07 8.36845e-09
  Iterations, force evaluations = 11 63

MPI task timing breakdown:
Section |  min time  |  avg time  |  max time  |%varavg| %total
---------------------------------------------------------------
Pair    | 0.06662    | 0.071962   | 0.076564   |   0.9 | 38.22
Kspace  | 0.10158    | 0.1056     | 0.10715    |   0.5 | 56.09
Neigh   | 0          | 0          | 0          |   0.0 |  0.00
Comm    | 0.0076265  | 0.0095007  | 0.013373   |   1.7 |  5.05
Output  | 0          | 0          | 0          |   0.0 |  0.00
Modify  | 0          | 0          | 0          |   0.0 |  0.00
Other   |            | 0.001208   |            |       |  0.64

Nlocal:    84 ave 86 max 79 min
Histogram: 1 0 1 0 0 2 0 1 4 3
Nghost:    2611.5 ave 2632 max 2585 min
Histogram: 2 0 2 1 0 1 0 1 3 2
Neighs:    18630.6 ave 19158 max 17412 min
Histogram: 1 0 0 1 1 1 1 1 3 3

Total # of neighbors = 223567
Ave neighs/atom = 221.793
Neighbor list builds = 0
Dangerous builds = 0
CR_UPDATE- 23.300680	23.300680	23.300680	0.000000	0.000000	0.000000
For k = 6, applying strain of 1.005
Changing box ...
  triclinic box = (0 0 0) to (23.3007 23.3007 23.3007) with tilt (0.116503 0 0)
WARNING: Resetting reneighboring criteria during minimization (../min.cpp:168)
Ewald initialization ...
  G vector (1/distance) = 0.365055
  estimated absolute RMS force accuracy = 1.94166e-05
  estimated relative force accuracy = 1.34841e-06
  KSpace vectors: actual max1d max3d = 2079 10 4630
                  kxmax kymax kzmax  = 10 10 10
Setting up cg style minimization ...
  Unit style: metal
Memory usage per processor = 4.56136 Mbytes
Step Temp E_pair E_mol TotEng Press 
     319           10   -18273.562            0    -18272.26   -5944.1987 
     329           10   -18273.619            0   -18272.317   -5950.7635 
Loop time of 0.189324 on 12 procs for 10 steps with 1008 atoms

99.9% CPU use with 12 MPI tasks x no OpenMP threads

Minimization stats:
  Stopping criterion = linesearch alpha is zero
  Energy initial, next-to-last, final = 
        -18273.5620505       -18273.61878       -18273.61878
  Force two-norm initial, final = 1.25657 0.2192
  Force max component initial, final = 0.121154 0.0336089
  Final line search alpha, max atom move = 2.38419e-07 8.01298e-09
  Iterations, force evaluations = 10 63

MPI task timing breakdown:
Section |  min time  |  avg time  |  max time  |%varavg| %total
---------------------------------------------------------------
Pair    | 0.06704    | 0.0722     | 0.076218   |   0.9 | 38.14
Kspace  | 0.10255    | 0.10597    | 0.1074     |   0.4 | 55.98
Neigh   | 0          | 0          | 0          |   0.0 |  0.00
Comm    | 0.0080631  | 0.0099358  | 0.013814   |   1.6 |  5.25
Output  | 0          | 0          | 0          |   0.0 |  0.00
Modify  | 0          | 0          | 0          |   0.0 |  0.00
Other   |            | 0.001214   |            |       |  0.64

Nlocal:    84 ave 86 max 79 min
Histogram: 1 0 1 0 0 2 0 1 4 3
Nghost:    2611.5 ave 2632 max 2585 min
Histogram: 2 0 2 1 0 1 0 1 3 2
Neighs:    18630.2 ave 19163 max 17416 min
Histogram: 1 0 0 1 1 1 1 1 3 3

Total # of neighbors = 223562
Ave neighs/atom = 221.788
Neighbor list builds = 0
Dangerous builds = 0
CR_UPDATE- 23.300680	23.300680	23.300680	0.000000	0.000000	0.000000
For k = 0, applying strain of 0.995
Changing box ...
  triclinic box = (0 0 0) to (23.3007 23.3007 23.3007) with tilt (0 -0.116503 0)
WARNING: Resetting reneighboring criteria during minimization (../min.cpp:168)
Ewald initialization ...
  G vector (1/distance) = 0.365055
  estimated absolute RMS force accuracy = 1.94166e-05
  estimated relative force accuracy = 1.34841e-06
  KSpace vectors: actual max1d max3d = 2079 10 4630
                  kxmax kymax kzmax  = 10 10 10
Setting up cg style minimization ...
  Unit style: metal
Memory usage per processor = 4.56136 Mbytes
Step Temp E_pair E_mol TotEng Press 
     329           10   -18273.578            0   -18272.277   -5867.7363 
     340           10   -18273.638            0   -18272.336   -5895.8586 
Loop time of 0.195541 on 12 procs for 11 steps with 1008 atoms

99.8% CPU use with 12 MPI tasks x no OpenMP threads

Minimization stats:
  Stopping criterion = linesearch alpha is zero
  Energy initial, next-to-last, final = 
         -18273.578172     -18273.6378598     -18273.6378598
  Force two-norm initial, final = 1.25303 0.198582
  Force max component initial, final = 0.120433 0.0373351
  Final line search alpha, max atom move = 2.38419e-07 8.90138e-09
  Iterations, force evaluations = 11 65

MPI task timing breakdown:
Section |  min time  |  avg time  |  max time  |%varavg| %total
---------------------------------------------------------------
Pair    | 0.068118   | 0.074315   | 0.078502   |   0.9 | 38.00
Kspace  | 0.1066     | 0.10997    | 0.11204    |   0.4 | 56.24
Neigh   | 0          | 0          | 0          |   0.0 |  0.00
Comm    | 0.0083396  | 0.010066   | 0.014218   |   1.7 |  5.15
Output  | 0          | 0          | 0          |   0.0 |  0.00
Modify  | 0          | 0          | 0          |   0.0 |  0.00
Other   |            | 0.001186   |            |       |  0.61

Nlocal:    84 ave 86 max 79 min
Histogram: 1 0 1 0 0 2 0 1 4 3
Nghost:    2611.5 ave 2632 max 2585 min
Histogram: 2 0 2 1 0 1 0 1 3 2
Neighs:    18629.2 ave 19159 max 17414 min
Histogram: 1 0 0 1 1 1 2 0 3 3

Total # of neighbors = 223550
Ave neighs/atom = 221.776
Neighbor list builds = 0
Dangerous builds = 0
CR_UPDATE- 23.300680	23.300680	23.300680	0.000000	0.000000	0.000000
For k = 1, applying strain of 0.996667
Changing box ...
  triclinic box = (0 0 0) to (23.3007 23.3007 23.3007) with tilt (0 -0.077661 0)
WARNING: Resetting reneighboring criteria during minimization (../min.cpp:168)
Ewald initialization ...
  G vector (1/distance) = 0.365055
  estimated absolute RMS force accuracy = 1.94166e-05
  estimated relative force accuracy = 1.34841e-06
  KSpace vectors: actual max1d max3d = 2081 10 4630
                  kxmax kymax kzmax  = 10 10 10
Setting up cg style minimization ...
  Unit style: metal
Memory usage per processor = 4.56136 Mbytes
Step Temp E_pair E_mol TotEng Press 
     340           10   -18273.613            0   -18272.312   -5898.0853 
     350           10   -18273.639            0   -18272.338   -5910.5299 
     352           10   -18273.641            0   -18272.339   -5908.9675 
Loop time of 0.193568 on 12 procs for 12 steps with 1008 atoms

100.0% CPU use with 12 MPI tasks x no OpenMP threads

Minimization stats:
  Stopping criterion = linesearch alpha is zero
  Energy initial, next-to-last, final = 
        -18273.6134756     -18273.6407819     -18273.6407819
  Force two-norm initial, final = 0.835323 0.119383
  Force max component initial, final = 0.0802033 0.0250946
  Final line search alpha, max atom move = 4.76837e-07 1.1966e-08
  Iterations, force evaluations = 12 65

MPI task timing breakdown:
Section |  min time  |  avg time  |  max time  |%varavg| %total
---------------------------------------------------------------
Pair    | 0.068476   | 0.074045   | 0.078576   |   0.9 | 38.25
Kspace  | 0.10486    | 0.10858    | 0.1101     |   0.4 | 56.09
Neigh   | 0          | 0          | 0          |   0.0 |  0.00
Comm    | 0.0079296  | 0.0097033  | 0.01385    |   1.7 |  5.01
Output  | 2.5034e-05 | 2.6107e-05 | 3.5048e-05 |   0.1 |  0.01
Modify  | 0          | 0          | 0          |   0.0 |  0.00
Other   |            | 0.001217   |            |       |  0.63

Nlocal:    84 ave 86 max 79 min
Histogram: 1 0 1 0 0 2 0 1 4 3
Nghost:    2611.5 ave 2632 max 2585 min
Histogram: 2 0 2 1 0 1 0 1 3 2
Neighs:    18629.7 ave 19155 max 17419 min
Histogram: 1 0 0 1 1 1 1 1 3 3

Total # of neighbors = 223556
Ave neighs/atom = 221.782
Neighbor list builds = 0
Dangerous builds = 0
CR_UPDATE- 23.300680	23.300680	23.300680	0.000000	0.000000	0.000000
For k = 2, applying strain of 0.998333
Changing box ...
  triclinic box = (0 0 0) to (23.3007 23.3007 23.3007) with tilt (0 -0.038842 0)
WARNING: Resetting reneighboring criteria during minimization (../min.cpp:168)
Ewald initialization ...
  G vector (1/distance) = 0.365055
  estimated absolute RMS force accuracy = 1.94166e-05
  estimated relative force accuracy = 1.34841e-06
  KSpace vectors: actual max1d max3d = 2082 10 4630
                  kxmax kymax kzmax  = 10 10 10
Setting up cg style minimization ...
  Unit style: metal
Memory usage per processor = 4.56136 Mbytes
Step Temp E_pair E_mol TotEng Press 
     352           10   -18273.622            0    -18272.32   -5923.6512 
     357           10   -18273.628            0   -18272.326   -5929.7941 
Loop time of 0.152959 on 12 procs for 5 steps with 1008 atoms

100.0% CPU use with 12 MPI tasks x no OpenMP threads

Minimization stats:
  Stopping criterion = linesearch alpha is zero
  Energy initial, next-to-last, final = 
        -18273.6216535     -18273.6280601     -18273.6280601
  Force two-norm initial, final = 0.417819 0.132216
  Force max component initial, final = 0.0400647 0.019261
  Final line search alpha, max atom move = 4.76837e-07 9.18437e-09
  Iterations, force evaluations = 5 51

MPI task timing breakdown:
Section |  min time  |  avg time  |  max time  |%varavg| %total
---------------------------------------------------------------
Pair    | 0.053085   | 0.058172   | 0.061491   |   0.8 | 38.03
Kspace  | 0.08276    | 0.085767   | 0.087861   |   0.5 | 56.07
Neigh   | 0          | 0          | 0          |   0.0 |  0.00
Comm    | 0.0063047  | 0.0080783  | 0.011068   |   1.5 |  5.28
Output  | 0          | 0          | 0          |   0.0 |  0.00
Modify  | 0          | 0          | 0          |   0.0 |  0.00
Other   |            | 0.0009412  |            |       |  0.62

Nlocal:    84 ave 86 max 79 min
Histogram: 1 0 1 0 0 2 0 1 4 3
Nghost:    2611.5 ave 2632 max 2585 min
Histogram: 2 0 2 1 0 1 0 1 3 2
Neighs:    18630.1 ave 19167 max 17416 min
Histogram: 1 0 0 1 1 1 2 0 3 3

Total # of neighbors = 223561
Ave neighs/atom = 221.787
Neighbor list builds = 0
Dangerous builds = 0
CR_UPDATE- 23.300680	23.300680	23.300680	0.000000	0.000000	0.000000
For k = 3, applying strain of 1
Changing box ...
  triclinic box = (0 0 0) to (23.3007 23.3007 23.3007) with tilt (0 0 0)
WARNING: Resetting reneighboring criteria during minimization (../min.cpp:168)
Ewald initialization ...
  G vector (1/distance) = 0.365055
  estimated absolute RMS force accuracy = 1.94166e-05
  estimated relative force accuracy = 1.34841e-06
  KSpace vectors: actual max1d max3d = 2084 10 4630
                  kxmax kymax kzmax  = 10 10 10
Setting up cg style minimization ...
  Unit style: metal
Memory usage per processor = 4.56136 Mbytes
Step Temp E_pair E_mol TotEng Press 
     357           10   -18273.601            0     -18272.3    -5944.226 
     359           10   -18273.601            0     -18272.3   -5941.7916 
Loop time of 0.070686 on 12 procs for 2 steps with 1008 atoms

100.4% CPU use with 12 MPI tasks x no OpenMP threads

Minimization stats:
  Stopping criterion = linesearch alpha is zero
  Energy initial, next-to-last, final = 
         -18273.601313     -18273.6013225     -18273.6013225
  Force two-norm initial, final = 0.00482554 0.00323379
  Force max component initial, final = 0.000346992 0.00039228
  Final line search alpha, max atom move = 0.000976562 3.83085e-07
  Iterations, force evaluations = 2 23

MPI task timing breakdown:
Section |  min time  |  avg time  |  max time  |%varavg| %total
---------------------------------------------------------------
Pair    | 0.024888   | 0.027152   | 0.028748   |   0.6 | 38.41
Kspace  | 0.038063   | 0.039471   | 0.040447   |   0.3 | 55.84
Neigh   | 0          | 0          | 0          |   0.0 |  0.00
Comm    | 0.0028486  | 0.0036245  | 0.0049729  |   1.0 |  5.13
Output  | 0          | 0          | 0          |   0.0 |  0.00
Modify  | 0          | 0          | 0          |   0.0 |  0.00
Other   |            | 0.0004391  |            |       |  0.62

Nlocal:    84 ave 86 max 79 min
Histogram: 1 0 1 0 0 2 0 1 4 3
Nghost:    2611.5 ave 2632 max 2585 min
Histogram: 2 0 2 1 0 1 0 1 3 2
Neighs:    18631 ave 19164 max 17412 min
Histogram: 1 0 0 1 1 1 2 0 3 3

Total # of neighbors = 223572
Ave neighs/atom = 221.798
Neighbor list builds = 0
Dangerous builds = 0
CR_UPDATE- 23.300680	23.300680	23.300680	0.000000	0.000000	0.000000
For k = 4, applying strain of 1.00167
Changing box ...
  triclinic box = (0 0 0) to (23.3007 23.3007 23.3007) with tilt (0 0.038842 0)
WARNING: Resetting reneighboring criteria during minimization (../min.cpp:168)
Ewald initialization ...
  G vector (1/distance) = 0.365055
  estimated absolute RMS force accuracy = 1.94166e-05
  estimated relative force accuracy = 1.34841e-06
  KSpace vectors: actual max1d max3d = 2082 10 4630
                  kxmax kymax kzmax  = 10 10 10
Setting up cg style minimization ...
  Unit style: metal
Memory usage per processor = 4.56136 Mbytes
Step Temp E_pair E_mol TotEng Press 
     359           10   -18273.554            0   -18272.252   -5960.0307 
     362           10   -18273.558            0   -18272.256   -5946.3588 
Loop time of 0.148021 on 12 procs for 3 steps with 1008 atoms

100.0% CPU use with 12 MPI tasks x no OpenMP threads

Minimization stats:
  Stopping criterion = linesearch alpha is zero
  Energy initial, next-to-last, final = 
        -18273.5536843      -18273.557713      -18273.557713
  Force two-norm initial, final = 0.417951 0.200943
  Force max component initial, final = 0.0400128 0.0262558
  Final line search alpha, max atom move = 2.38419e-07 6.25987e-09
  Iterations, force evaluations = 3 49

MPI task timing breakdown:
Section |  min time  |  avg time  |  max time  |%varavg| %total
---------------------------------------------------------------
Pair    | 0.051578   | 0.056213   | 0.05959    |   0.8 | 37.98
Kspace  | 0.079943   | 0.083029   | 0.084828   |   0.4 | 56.09
Neigh   | 0          | 0          | 0          |   0.0 |  0.00
Comm    | 0.0062277  | 0.0078867  | 0.01072    |   1.4 |  5.33
Output  | 0          | 0          | 0          |   0.0 |  0.00
Modify  | 0          | 0          | 0          |   0.0 |  0.00
Other   |            | 0.000892   |            |       |  0.60

Nlocal:    84 ave 86 max 79 min
Histogram: 1 0 1 0 0 2 0 1 4 3
Nghost:    2611.5 ave 2632 max 2585 min
Histogram: 2 0 2 1 0 1 0 1 3 2
Neighs:    18632.3 ave 19170 max 17417 min
Histogram: 1 0 0 1 1 1 2 0 3 3

Total # of neighbors = 223588
Ave neighs/atom = 221.813
Neighbor list builds = 0
Dangerous builds = 0
CR_UPDATE- 23.300680	23.300680	23.300680	0.000000	0.000000	0.000000
For k = 5, applying strain of 1.00333
Changing box ...
  triclinic box = (0 0 0) to (23.3007 23.3007 23.3007) with tilt (0 0.077661 0)
WARNING: Resetting reneighboring criteria during minimization (../min.cpp:168)
Ewald initialization ...
  G vector (1/distance) = 0.365055
  estimated absolute RMS force accuracy = 1.94166e-05
  estimated relative force accuracy = 1.34841e-06
  KSpace vectors: actual max1d max3d = 2081 10 4630
                  kxmax kymax kzmax  = 10 10 10
Setting up cg style minimization ...
  Unit style: metal
Memory usage per processor = 4.56136 Mbytes
Step Temp E_pair E_mol TotEng Press 
     362           10   -18273.478            0   -18272.176   -5970.9764 
     370           10     -18273.5            0   -18272.199   -5956.1408 
Loop time of 0.177755 on 12 procs for 8 steps with 1008 atoms

99.8% CPU use with 12 MPI tasks x no OpenMP threads

Minimization stats:
  Stopping criterion = linesearch alpha is zero
  Energy initial, next-to-last, final = 
        -18273.4779519     -18273.5004388     -18273.5004388
  Force two-norm initial, final = 0.835676 0.172818
  Force max component initial, final = 0.0799142 0.0241555
  Final line search alpha, max atom move = 2.38419e-07 5.75912e-09
  Iterations, force evaluations = 8 59

MPI task timing breakdown:
Section |  min time  |  avg time  |  max time  |%varavg| %total
---------------------------------------------------------------
Pair    | 0.062025   | 0.067672   | 0.070889   |   0.8 | 38.07
Kspace  | 0.096457   | 0.099364   | 0.1016     |   0.4 | 55.90
Neigh   | 0          | 0          | 0          |   0.0 |  0.00
Comm    | 0.0076435  | 0.0096015  | 0.013019   |   1.6 |  5.40
Output  | 0          | 0          | 0          |   0.0 |  0.00
Modify  | 0          | 0          | 0          |   0.0 |  0.00
Other   |            | 0.001117   |            |       |  0.63

Nlocal:    84 ave 86 max 79 min
Histogram: 1 0 1 0 0 2 0 1 4 3
Nghost:    2611.5 ave 2632 max 2585 min
Histogram: 2 0 2 1 0 1 0 1 3 2
Neighs:    18631.8 ave 19171 max 17414 min
Histogram: 1 0 0 1 1 1 2 0 3 3

Total # of neighbors = 223582
Ave neighs/atom = 221.808
Neighbor list builds = 0
Dangerous builds = 0
CR_UPDATE- 23.300680	23.300680	23.300680	0.000000	0.000000	0.000000
For k = 6, applying strain of 1.005
Changing box ...
  triclinic box = (0 0 0) to (23.3007 23.3007 23.3007) with tilt (0 0.116503 0)
WARNING: Resetting reneighboring criteria during minimization (../min.cpp:168)
Ewald initialization ...
  G vector (1/distance) = 0.365055
  estimated absolute RMS force accuracy = 1.94166e-05
  estimated relative force accuracy = 1.34841e-06
  KSpace vectors: actual max1d max3d = 2079 10 4630
                  kxmax kymax kzmax  = 10 10 10
Setting up cg style minimization ...
  Unit style: metal
Memory usage per processor = 4.56136 Mbytes
Step Temp E_pair E_mol TotEng Press 
     370           10   -18273.374            0   -18272.072   -5976.8224 
     391           10   -18273.437            0   -18272.135   -5993.4353 
Loop time of 0.234835 on 12 procs for 21 steps with 1008 atoms

99.9% CPU use with 12 MPI tasks x no OpenMP threads

Minimization stats:
  Stopping criterion = linesearch alpha is zero
  Energy initial, next-to-last, final = 
         -18273.373982     -18273.4367219     -18273.4367219
  Force two-norm initial, final = 1.25382 0.0756952
  Force max component initial, final = 0.119759 0.00814052
  Final line search alpha, max atom move = 1.90735e-06 1.55268e-08
  Iterations, force evaluations = 21 79

MPI task timing breakdown:
Section |  min time  |  avg time  |  max time  |%varavg| %total
---------------------------------------------------------------
Pair    | 0.082576   | 0.089848   | 0.09403    |   1.0 | 38.26
Kspace  | 0.12768    | 0.13121    | 0.13412    |   0.5 | 55.87
Neigh   | 0          | 0          | 0          |   0.0 |  0.00
Comm    | 0.0099616  | 0.012199   | 0.016829   |   1.8 |  5.19
Output  | 0          | 0          | 0          |   0.0 |  0.00
Modify  | 0          | 0          | 0          |   0.0 |  0.00
Other   |            | 0.001578   |            |       |  0.67

Nlocal:    84 ave 86 max 79 min
Histogram: 1 0 1 0 0 2 0 1 4 3
Nghost:    2611.5 ave 2632 max 2585 min
Histogram: 2 0 2 1 0 1 0 1 3 2
Neighs:    18631.2 ave 19174 max 17415 min
Histogram: 1 0 0 1 1 1 2 0 3 3

Total # of neighbors = 223575
[...]
  estimated relative force accuracy = 1.34841e-06
  KSpace vectors: actual max1d max3d = 2081 10 4630
                  kxmax kymax kzmax  = 10 10 10
Setting up cg style minimization ...
  Unit style: metal
Memory usage per processor = 4.56136 Mbytes
Step Temp E_pair E_mol TotEng Press 
     909           10   -18273.323            0   -18272.021   -5946.5521 
     917           10   -18273.347            0   -18272.045   -5967.6159 
Loop time of 0.296808 on 12 procs for 8 steps with 1008 atoms

99.8% CPU use with 12 MPI tasks x no OpenMP threads

Minimization stats:
  Stopping criterion = linesearch alpha is zero
  Energy initial, next-to-last, final = 
        -18273.3230943     -18273.3466936     -18273.3466936
  Force two-norm initial, final = 0.830238 0.197272
  Force max component initial, final = 0.0810802 0.027007
  Final line search alpha, max atom move = 2.38419e-07 6.43897e-09
  Iterations, force evaluations = 8 99

MPI task timing breakdown:
Section |  min time  |  avg time  |  max time  |%varavg| %total
---------------------------------------------------------------
Pair    | 0.10301    | 0.11266    | 0.1186     |   1.1 | 37.96
Kspace  | 0.16299    | 0.16681    | 0.16959    |   0.5 | 56.20
Neigh   | 0          | 0          | 0          |   0.0 |  0.00
Comm    | 0.012669   | 0.015588   | 0.022479   |   2.1 |  5.25
Output  | 0          | 0          | 0          |   0.0 |  0.00
Modify  | 0          | 0          | 0          |   0.0 |  0.00
Other   |            | 0.001744   |            |       |  0.59

Nlocal:    84 ave 86 max 78 min
Histogram: 1 0 0 0 0 1 2 2 2 4
Nghost:    2614.17 ave 2635 max 2590 min
Histogram: 2 0 1 1 1 1 3 1 0 2
Neighs:    18634 ave 19179 max 17202 min
Histogram: 1 0 0 0 0 1 3 2 1 4

Total # of neighbors = 223608
Ave neighs/atom = 221.833
Neighbor list builds = 0
Dangerous builds = 0
CR_UPDATE- 23.300680	23.300680	23.300680	0.000000	0.000000	0.000000
For k = 6, applying strain of 1.005
Changing box ...
  triclinic box = (0 0 0) to (23.3007 23.3007 23.3007) with tilt (0 0.116503 0)
WARNING: Resetting reneighboring criteria during minimization (../min.cpp:168)
Ewald initialization ...
  G vector (1/distance) = 0.365055
  estimated absolute RMS force accuracy = 1.94166e-05
  estimated relative force accuracy = 1.34841e-06
  KSpace vectors: actual max1d max3d = 2079 10 4630
                  kxmax kymax kzmax  = 10 10 10
Setting up cg style minimization ...
  Unit style: metal
Memory usage per processor = 4.56136 Mbytes
Step Temp E_pair E_mol TotEng Press 
     917           10   -18273.221            0   -18271.919    -5952.258 
     933           10    -18273.28            0   -18271.979   -6023.3509 
Loop time of 0.219985 on 12 procs for 16 steps with 1008 atoms

99.9% CPU use with 12 MPI tasks x no OpenMP threads

Minimization stats:
  Stopping criterion = linesearch alpha is zero
  Energy initial, next-to-last, final = 
        -18273.2208415     -18273.2802795     -18273.2802795
  Force two-norm initial, final = 1.2457 0.117492
  Force max component initial, final = 0.121504 0.0192922
  Final line search alpha, max atom move = 4.76837e-07 9.19924e-09
  Iterations, force evaluations = 16 73

MPI task timing breakdown:
Section |  min time  |  avg time  |  max time  |%varavg| %total
---------------------------------------------------------------
Pair    | 0.075518   | 0.083389   | 0.090049   |   1.2 | 37.91
Kspace  | 0.1183     | 0.12375    | 0.12682    |   0.6 | 56.25
Neigh   | 0          | 0          | 0          |   0.0 |  0.00
Comm    | 0.0088444  | 0.011438   | 0.016252   |   1.8 |  5.20
Output  | 0          | 0          | 0          |   0.0 |  0.00
Modify  | 0          | 0          | 0          |   0.0 |  0.00
Other   |            | 0.001408   |            |       |  0.64

Nlocal:    84 ave 86 max 78 min
Histogram: 1 0 0 0 0 1 2 2 2 4
Nghost:    2614.17 ave 2635 max 2590 min
Histogram: 2 0 1 1 1 1 3 1 0 2
Neighs:    18634.8 ave 19187 max 17208 min
Histogram: 1 0 0 0 0 1 3 2 1 4

Total # of neighbors = 223617
Ave neighs/atom = 221.842
Neighbor list builds = 0
Dangerous builds = 0
CR_UPDATE- 23.300680	23.300680	23.300680	0.000000	0.000000	0.000000
For k = 0, applying strain of 0.995
Changing box ...
  triclinic box = (0 0 0) to (23.3007 23.3007 23.3007) with tilt (0 0 -0.116503)
WARNING: Resetting reneighboring criteria during minimization (../min.cpp:168)
Ewald initialization ...
  G vector (1/distance) = 0.365055
  estimated absolute RMS force accuracy = 1.94166e-05
  estimated relative force accuracy = 1.34841e-06
  KSpace vectors: actual max1d max3d = 2079 10 4630
                  kxmax kymax kzmax  = 10 10 10
Setting up cg style minimization ...
  Unit style: metal
Memory usage per processor = 4.56136 Mbytes
Step Temp E_pair E_mol TotEng Press 
     933           10   -18273.643            0   -18272.341   -5926.5239 
     946           10   -18273.706            0   -18272.404    -5713.907 
Loop time of 0.213569 on 12 procs for 13 steps with 1008 atoms

99.9% CPU use with 12 MPI tasks x no OpenMP threads

Minimization stats:
  Stopping criterion = linesearch alpha is zero
  Energy initial, next-to-last, final = 
        -18273.6426678     -18273.7057301     -18273.7057301
  Force two-norm initial, final = 1.25459 0.189956
  Force max component initial, final = 0.121607 0.0144797
  Final line search alpha, max atom move = 2.38419e-07 3.45224e-09
  Iterations, force evaluations = 13 71

MPI task timing breakdown:
Section |  min time  |  avg time  |  max time  |%varavg| %total
---------------------------------------------------------------
Pair    | 0.073237   | 0.080984   | 0.086747   |   1.1 | 37.92
Kspace  | 0.11619    | 0.12025    | 0.12274    |   0.5 | 56.30
Neigh   | 0          | 0          | 0          |   0.0 |  0.00
Comm    | 0.0089436  | 0.010993   | 0.016258   |   1.9 |  5.15
Output  | 0          | 0          | 0          |   0.0 |  0.00
Modify  | 0          | 0          | 0          |   0.0 |  0.00
Other   |            | 0.001346   |            |       |  0.63

Nlocal:    84 ave 86 max 78 min
Histogram: 1 0 0 0 0 1 2 2 2 4
Nghost:    2614.17 ave 2635 max 2590 min
Histogram: 2 0 1 1 1 1 3 1 0 2
Neighs:    18632.5 ave 19172 max 17209 min
Histogram: 1 0 0 0 0 1 3 2 1 4

Total # of neighbors = 223590
Ave neighs/atom = 221.815
Neighbor list builds = 0
Dangerous builds = 0
CR_UPDATE- 23.300680	23.300680	23.300680	0.000000	0.000000	0.000000
For k = 1, applying strain of 0.996667
Changing box ...
  triclinic box = (0 0 0) to (23.3007 23.3007 23.3007) with tilt (0 0 -0.077661)
WARNING: Resetting reneighboring criteria during minimization (../min.cpp:168)
Ewald initialization ...
  G vector (1/distance) = 0.365055
  estimated absolute RMS force accuracy = 1.94166e-05
  estimated relative force accuracy = 1.34841e-06
  KSpace vectors: actual max1d max3d = 2081 10 4630
                  kxmax kymax kzmax  = 10 10 10
Setting up cg style minimization ...
  Unit style: metal
Memory usage per processor = 4.56136 Mbytes
Step Temp E_pair E_mol TotEng Press 
     946           10   -18273.605            0   -18272.303     -5929.31 
     950           10   -18273.628            0   -18272.326   -5830.2392 
     953           10   -18273.631            0   -18272.329    -5808.979 
Loop time of 0.17272 on 12 procs for 7 steps with 1008 atoms

99.7% CPU use with 12 MPI tasks x no OpenMP threads

Minimization stats:
  Stopping criterion = linesearch alpha is zero
  Energy initial, next-to-last, final = 
         -18273.604644      -18273.630843      -18273.630843
  Force two-norm initial, final = 0.836418 0.210927
  Force max component initial, final = 0.0810872 0.0580862
  Final line search alpha, max atom move = 2.38419e-07 1.38488e-08
  Iterations, force evaluations = 7 57

MPI task timing breakdown:
Section |  min time  |  avg time  |  max time  |%varavg| %total
---------------------------------------------------------------
Pair    | 0.059457   | 0.06549    | 0.070316   |   1.0 | 37.92
Kspace  | 0.093853   | 0.097112   | 0.098804   |   0.4 | 56.23
Neigh   | 0          | 0          | 0          |   0.0 |  0.00
Comm    | 0.0074549  | 0.0090087  | 0.013376   |   1.7 |  5.22
Output  | 2.6941e-05 | 2.8014e-05 | 3.6001e-05 |   0.0 |  0.02
Modify  | 0          | 0          | 0          |   0.0 |  0.00
Other   |            | 0.001081   |            |       |  0.63

Nlocal:    84 ave 86 max 78 min
Histogram: 1 0 0 0 0 1 2 2 2 4
Nghost:    2614.17 ave 2635 max 2590 min
Histogram: 2 0 1 1 1 1 3 1 0 2
Neighs:    18633 ave 19170 max 17205 min
Histogram: 1 0 0 0 0 1 3 2 0 5

Total # of neighbors = 223596
Ave neighs/atom = 221.821
Neighbor list builds = 0
Dangerous builds = 0
CR_UPDATE- 23.300680	23.300680	23.300680	0.000000	0.000000	0.000000
For k = 2, applying strain of 0.998333
Changing box ...
  triclinic box = (0 0 0) to (23.3007 23.3007 23.3007) with tilt (0 0 -0.038842)
WARNING: Resetting reneighboring criteria during minimization (../min.cpp:168)
Ewald initialization ...
  G vector (1/distance) = 0.365055
  estimated absolute RMS force accuracy = 1.94166e-05
  estimated relative force accuracy = 1.34841e-06
  KSpace vectors: actual max1d max3d = 2082 10 4630
                  kxmax kymax kzmax  = 10 10 10
Setting up cg style minimization ...
  Unit style: metal
Memory usage per processor = 4.56136 Mbytes
Step Temp E_pair E_mol TotEng Press 
     953           10    -18273.54            0   -18272.239   -5927.8857 
     963           10   -18273.548            0   -18272.246   -5852.2129 
Loop time of 0.172054 on 12 procs for 10 steps with 1008 atoms

99.9% CPU use with 12 MPI tasks x no OpenMP threads

Minimization stats:
  Stopping criterion = linesearch alpha is zero
  Energy initial, next-to-last, final = 
        -18273.5403687     -18273.5477437     -18273.5477437
  Force two-norm initial, final = 0.418437 0.080514
  Force max component initial, final = 0.0405512 0.0116578
  Final line search alpha, max atom move = 1.90735e-06 2.22355e-08
  Iterations, force evaluations = 10 57

MPI task timing breakdown:
Section |  min time  |  avg time  |  max time  |%varavg| %total
---------------------------------------------------------------
Pair    | 0.059753   | 0.06541    | 0.069109   |   0.9 | 38.02
Kspace  | 0.094129   | 0.096367   | 0.097731   |   0.3 | 56.01
Neigh   | 0          | 0          | 0          |   0.0 |  0.00
Comm    | 0.0074649  | 0.0091824  | 0.013467   |   1.7 |  5.34
Output  | 0          | 0          | 0          |   0.0 |  0.00
Modify  | 0          | 0          | 0          |   0.0 |  0.00
Other   |            | 0.001094   |            |       |  0.64

Nlocal:    84 ave 86 max 78 min
Histogram: 1 0 0 0 0 1 2 2 2 4
Nghost:    2614.17 ave 2635 max 2590 min
Histogram: 2 0 1 1 1 1 3 1 0 2
Neighs:    18634.2 ave 19165 max 17207 min
Histogram: 1 0 0 0 0 1 3 2 0 5

Total # of neighbors = 223610
Ave neighs/atom = 221.835
Neighbor list builds = 0
Dangerous builds = 0
CR_UPDATE- 23.300680	23.300680	23.300680	0.000000	0.000000	0.000000
For k = 3, applying strain of 1
Changing box ...
  triclinic box = (0 0 0) to (23.3007 23.3007 23.3007) with tilt (0 0 0)
WARNING: Resetting reneighboring criteria during minimization (../min.cpp:168)
Ewald initialization ...
  G vector (1/distance) = 0.365055
  estimated absolute RMS force accuracy = 1.94166e-05
  estimated relative force accuracy = 1.34841e-06
  KSpace vectors: actual max1d max3d = 2084 10 4630
                  kxmax kymax kzmax  = 10 10 10
Setting up cg style minimization ...
  Unit style: metal
Memory usage per processor = 4.56136 Mbytes
Step Temp E_pair E_mol TotEng Press 
     963           10   -18273.444            0   -18272.143   -5920.7853 
     966           10   -18273.444            0   -18272.143   -5916.3077 
Loop time of 0.0828417 on 12 procs for 3 steps with 1008 atoms

100.0% CPU use with 12 MPI tasks x no OpenMP threads

Minimization stats:
  Stopping criterion = linesearch alpha is zero
  Energy initial, next-to-last, final = 
        -18273.4442518     -18273.4442669     -18273.4442669
  Force two-norm initial, final = 0.00482173 0.00283997
  Force max component initial, final = 0.000345026 0.000646683
  Final line search alpha, max atom move = 0.000976562 6.31526e-07
  Iterations, force evaluations = 3 27

MPI task timing breakdown:
Section |  min time  |  avg time  |  max time  |%varavg| %total
---------------------------------------------------------------
Pair    | 0.028568   | 0.031517   | 0.033453   |   0.7 | 38.04
Kspace  | 0.045002   | 0.046446   | 0.047489   |   0.3 | 56.07
Neigh   | 0          | 0          | 0          |   0.0 |  0.00
Comm    | 0.0034404  | 0.0043517  | 0.006263   |   1.1 |  5.25
Output  | 0          | 0          | 0          |   0.0 |  0.00
Modify  | 0          | 0          | 0          |   0.0 |  0.00
Other   |            | 0.0005275  |            |       |  0.64

Nlocal:    84 ave 86 max 78 min
Histogram: 1 0 0 0 0 1 2 2 2 4
Nghost:    2614.17 ave 2635 max 2590 min
Histogram: 2 0 1 1 1 1 3 1 0 2
Neighs:    18630.7 ave 19166 max 17206 min
Histogram: 1 0 0 0 0 1 3 2 1 4

Total # of neighbors = 223568
Ave neighs/atom = 221.794
Neighbor list builds = 0
Dangerous builds = 0
CR_UPDATE- 23.300680	23.300680	23.300680	0.000000	0.000000	0.000000
For k = 4, applying strain of 1.00167
Changing box ...
  triclinic box = (0 0 0) to (23.3007 23.3007 23.3007) with tilt (0 0 0.038842)
WARNING: Resetting reneighboring criteria during minimization (../min.cpp:168)
Ewald initialization ...
  G vector (1/distance) = 0.365055
  estimated absolute RMS force accuracy = 1.94166e-05
  estimated relative force accuracy = 1.34841e-06
  KSpace vectors: actual max1d max3d = 2082 10 4630
                  kxmax kymax kzmax  = 10 10 10
Setting up cg style minimization ...
  Unit style: metal
Memory usage per processor = 4.56136 Mbytes
Step Temp E_pair E_mol TotEng Press 
     966           10   -18273.326            0   -18272.024   -5910.3383 
     969           10    -18273.33            0   -18272.029   -5940.7325 
Loop time of 0.146896 on 12 procs for 3 steps with 1008 atoms

100.1% CPU use with 12 MPI tasks x no OpenMP threads

Minimization stats:
  Stopping criterion = linesearch alpha is zero
  Energy initial, next-to-last, final = 
        -18273.3260831      -18273.330373      -18273.330373
  Force two-norm initial, final = 0.418315 0.199437
  Force max component initial, final = 0.0406851 0.0241963
  Final line search alpha, max atom move = 2.38419e-07 5.76885e-09
  Iterations, force evaluations = 3 49

MPI task timing breakdown:
Section |  min time  |  avg time  |  max time  |%varavg| %total
---------------------------------------------------------------
Pair    | 0.05082    | 0.056038   | 0.05956    |   0.9 | 38.15
Kspace  | 0.080031   | 0.082481   | 0.084265   |   0.4 | 56.15
Neigh   | 0          | 0          | 0          |   0.0 |  0.00
Comm    | 0.0060759  | 0.0075201  | 0.010972   |   1.5 |  5.12
Output  | 0          | 0          | 0          |   0.0 |  0.00
Modify  | 0          | 0          | 0          |   0.0 |  0.00
Other   |            | 0.0008571  |            |       |  0.58

Nlocal:    84 ave 86 max 78 min
Histogram: 1 0 0 0 0 1 2 2 2 4
Nghost:    2614.17 ave 2635 max 2590 min
Histogram: 2 0 1 1 1 1 3 1 0 2
Neighs:    18630 ave 19167 max 17203 min
Histogram: 1 0 0 0 0 1 3 2 1 4

Total # of neighbors = 223560
Ave neighs/atom = 221.786
Neighbor list builds = 0
Dangerous builds = 0
CR_UPDATE- 23.300680	23.300680	23.300680	0.000000	0.000000	0.000000
For k = 5, applying strain of 1.00333
Changing box ...
  triclinic box = (0 0 0) to (23.3007 23.3007 23.3007) with tilt (0 0 0.077661)
WARNING: Resetting reneighboring criteria during minimization (../min.cpp:168)
Ewald initialization ...
  G vector (1/distance) = 0.365055
  estimated absolute RMS force accuracy = 1.94166e-05
  estimated relative force accuracy = 1.34841e-06
  KSpace vectors: actual max1d max3d = 2081 10 4630
                  kxmax kymax kzmax  = 10 10 10
Setting up cg style minimization ...
  Unit style: metal
Memory usage per processor = 4.56136 Mbytes
Step Temp E_pair E_mol TotEng Press 
     969           10    -18273.18            0   -18271.878   -5895.1331 
     982           10   -18273.207            0   -18271.906   -6038.3714 
Loop time of 0.205393 on 12 procs for 13 steps with 1008 atoms

100.1% CPU use with 12 MPI tasks x no OpenMP threads

Minimization stats:
  Stopping criterion = linesearch alpha is zero
  Energy initial, next-to-last, final = 
        -18273.1800282     -18273.2074868     -18273.2074868
  Force two-norm initial, final = 0.836574 0.12866
  Force max component initial, final = 0.0813359 0.0108154
  Final line search alpha, max atom move = 4.76837e-07 5.15719e-09
  Iterations, force evaluations = 13 69

MPI task timing breakdown:
Section |  min time  |  avg time  |  max time  |%varavg| %total
---------------------------------------------------------------
Pair    | 0.070923   | 0.078389   | 0.082865   |   1.1 | 38.17
Kspace  | 0.11253    | 0.11514    | 0.1174     |   0.4 | 56.06
Neigh   | 0          | 0          | 0          |   0.0 |  0.00
Comm    | 0.0086846  | 0.010532   | 0.01575    |   1.9 |  5.13
Output  | 0          | 0          | 0          |   0.0 |  0.00
Modify  | 0          | 0          | 0          |   0.0 |  0.00
Other   |            | 0.001334   |            |       |  0.65

Nlocal:    84 ave 86 max 78 min
Histogram: 1 0 0 0 0 1 2 2 2 4
Nghost:    2614.17 ave 2635 max 2590 min
Histogram: 2 0 1 1 1 1 3 1 0 2
Neighs:    18631.3 ave 19177 max 17203 min
Histogram: 1 0 0 0 0 1 3 2 1 4

Total # of neighbors = 223576
Ave neighs/atom = 221.802
Neighbor list builds = 0
Dangerous builds = 0
CR_UPDATE- 23.300680	23.300680	23.300680	0.000000	0.000000	0.000000
For k = 6, applying strain of 1.005
Changing box ...
  triclinic box = (0 0 0) to (23.3007 23.3007 23.3007) with tilt (0 0 0.116503)
WARNING: Resetting reneighboring criteria during minimization (../min.cpp:168)
Ewald initialization ...
  G vector (1/distance) = 0.365055
  estimated absolute RMS force accuracy = 1.94166e-05
  estimated relative force accuracy = 1.34841e-06
  KSpace vectors: actual max1d max3d = 2079 10 4630
                  kxmax kymax kzmax  = 10 10 10
Setting up cg style minimization ...
  Unit style: metal
Memory usage per processor = 4.56136 Mbytes
Step Temp E_pair E_mol TotEng Press 
     982           10   -18273.005            0   -18271.704   -5875.1975 
    1000           10   -18273.074            0   -18271.772    -6097.426 
    1002           10   -18273.074            0   -18271.772   -6099.4659 
Loop time of 0.242707 on 12 procs for 20 steps with 1008 atoms

100.0% CPU use with 12 MPI tasks x no OpenMP threads

Minimization stats:
  Stopping criterion = linesearch alpha is zero
  Energy initial, next-to-last, final = 
        -18273.0054197     -18273.0740756     -18273.0740756
  Force two-norm initial, final = 1.2552 0.128208
  Force max component initial, final = 0.12205 0.0124957
  Final line search alpha, max atom move = 4.76837e-07 5.9584e-09
  Iterations, force evaluations = 20 81

MPI task timing breakdown:
Section |  min time  |  avg time  |  max time  |%varavg| %total
---------------------------------------------------------------
Pair    | 0.083473   | 0.092463   | 0.098134   |   1.1 | 38.10
Kspace  | 0.13243    | 0.13575    | 0.13854    |   0.4 | 55.93
Neigh   | 0          | 0          | 0          |   0.0 |  0.00
Comm    | 0.010494   | 0.012852   | 0.01905    |   2.0 |  5.30
Output  | 2.408e-05  | 2.5471e-05 | 3.314e-05  |   0.0 |  0.01
Modify  | 0          | 0          | 0          |   0.0 |  0.00
Other   |            | 0.001621   |            |       |  0.67

Nlocal:    84 ave 86 max 78 min
Histogram: 1 0 0 0 0 1 2 2 2 4
Nghost:    2614.17 ave 2635 max 2590 min
Histogram: 2 0 1 1 1 1 3 1 0 2
Neighs:    18631.8 ave 19179 max 17201 min
Histogram: 1 0 0 0 0 1 3 2 1 4

Total # of neighbors = 223581
Ave neighs/atom = 221.807
Neighbor list builds = 0
Dangerous builds = 0
Total wall time: 0:00:17
Done.
