LAMMPS (7 Dec 2015)
# Tantala heating to find melting temp. and glass transition temp.
# Intervals of 400 K (starting at 0 K) to be merged with the date from the even directory (also has intervals of 400 K starting at 200 K)
# Including rdf compute and initial velocity seed
# I've written a loop that makes melting/cooling simulation codes less tedious (In test directory input file)

# Initialization

units		metal
atom_style	charge
dimension	3
boundary	p p p

# Optional

neighbor	1.0 nsq
neigh_modify	every 1 delay 1 check yes

# Defining atomic system (896 atoms)

read_data	min1.dat
  triclinic box = (0 0 0) to (23.3007 23.3007 23.3007) with tilt (0 0 0)
  2 by 2 by 3 MPI processor grid
  reading atoms ...
  1008 atoms

# Potential

kspace_style	ewald 1.0e-6
#For low-temperature simulations, comment out the following line
#pair_style	hybrid/overlay lj246/cut 10 buck/coul/long 10 morse 10
#For low-temperature simulations, un-comment the following line
pair_style      hybrid/overlay buck/coul/long 10 morse 10

pair_coeff      1 2 buck/coul/long 100067.01 0.1319 6.05
pair_coeff      2 2 buck/coul/long 1388.773 0.3623188 175.0000
pair_coeff      1 1 buck/coul/long 0.00000000 1.0000000 0.000000
pair_coeff	2 3 buck/coul/long 17243.00 0.2265 128.35
pair_coeff      1 3 buck/coul/long 0.00000000 1.0000000 0.000000
pair_coeff      3 3 buck/coul/long 0.00000000 1.0000000 0.000000
pair_coeff 	1 2 morse 	   0.3789 1.6254 2.5445
#Remove these lines if running low-temperature simulation
#pair_coeff      1 2 lj246/cut	   0.01 0.51
#pair_coeff	2 2 lj246/cut 	   0.00035653 1.9000

# MD parameters

#1 fs timestep
timestep 0.001
thermo		50

fix		1 all nvt temp 10 10 0.1
velocity	all create 10 26684

load_tls min1.dump 1 0
  triclinic box = (0 0 0) to (23.3007 23.3007 23.3007) with tilt (0 0 0)
  1008 atoms before read
  1008 atoms in snapshot
  0 atoms purged
  1008 atoms replaced
  0 atoms trimmed
  0 atoms added
  1008 atoms after read
load_tls min2.dump 2 0
  triclinic box = (0 0 0) to (23.3007 23.3007 23.3007) with tilt (0 0 0)
  1008 atoms before read
  1008 atoms in snapshot
  0 atoms purged
  1008 atoms replaced
  0 atoms trimmed
  0 atoms added
  1008 atoms after read
couple_elastic 0.005 linear
  triclinic box = (0.0582517 0 0) to (23.2424 23.3007 23.3007) with tilt (0 0 0)
WARNING: Resetting reneighboring criteria during minimization (../min.cpp:168)
Ewald initialization ...
  G vector (1/distance) = 0.365089
  estimated absolute RMS force accuracy = 1.92191e-05
  estimated relative force accuracy = 1.33469e-06
  KSpace vectors: actual max1d max3d = 2088 10 4630
                  kxmax kymax kzmax  = 10 10 10
Neighbor list info ...
  2 neighbor list requests
  update every 1 steps, delay 0 steps, check yes
  max neighbors/atom: 2000, page size: 100000
  master list distance cutoff = 11
  ghost atom cutoff = 11
Memory usage per processor = 4.56197 Mbytes
Step Temp E_pair E_mol TotEng Press 
       0           10   -18273.892            0    -18272.59     3357.611 
      25           10   -18274.038            0   -18272.737   -296.31101 
Loop time of 0.251906 on 12 procs for 25 steps with 1008 atoms

99.6% CPU use with 12 MPI tasks x no OpenMP threads

Minimization stats:
  Stopping criterion = linesearch alpha is zero
  Energy initial, next-to-last, final = 
        -18273.8917272     -18274.0381589     -18274.0381589
  Force two-norm initial, final = 1.81371 0.0803191
  Force max component initial, final = 0.155485 0.00870115
  Final line search alpha, max atom move = 1.90735e-06 1.65961e-08
  Iterations, force evaluations = 25 87

MPI task timing breakdown:
Section |  min time  |  avg time  |  max time  |%varavg| %total
---------------------------------------------------------------
Pair    | 0.086413   | 0.09585    | 0.10002    |   1.1 | 38.05
Kspace  | 0.13835    | 0.14124    | 0.14343    |   0.4 | 56.07
Neigh   | 0          | 0          | 0          |   0.0 |  0.00
Comm    | 0.0085268  | 0.01325    | 0.020976   |   2.7 |  5.26
Output  | 0          | 0          | 0          |   0.0 |  0.00
Modify  | 0          | 0          | 0          |   0.0 |  0.00
Other   |            | 0.001568   |            |       |  0.62

Nlocal:    84 ave 88 max 77 min
Histogram: 1 0 0 1 0 2 3 2 0 3
Nghost:    2608.83 ave 2635 max 2586 min
Histogram: 2 2 2 0 0 0 2 2 0 2
Neighs:    18727.8 ave 19662 max 17099 min
Histogram: 1 0 0 1 1 1 4 1 1 2

Total # of neighbors = 224733
Ave neighs/atom = 222.949
Neighbor list builds = 0
Dangerous builds = 0
  triclinic box = (0.0388306 0 0) to (23.2618 23.3007 23.3007) with tilt (0 0 0)
WARNING: Resetting reneighboring criteria during minimization (../min.cpp:168)
Ewald initialization ...
  G vector (1/distance) = 0.365078
  estimated absolute RMS force accuracy = 1.92793e-05
  estimated relative force accuracy = 1.33888e-06
  KSpace vectors: actual max1d max3d = 2084 10 4630
                  kxmax kymax kzmax  = 10 10 10
Memory usage per processor = 4.56197 Mbytes
Step Temp E_pair E_mol TotEng Press 
      25           10   -18273.972            0    -18272.67   -238.58699 
      43           10   -18274.035            0   -18272.734    -2605.009 
Loop time of 0.217779 on 12 procs for 18 steps with 1008 atoms

100.0% CPU use with 12 MPI tasks x no OpenMP threads

Minimization stats:
  Stopping criterion = linesearch alpha is zero
  Energy initial, next-to-last, final = 
        -18273.9718011     -18274.0352575     -18274.0352575
  Force two-norm initial, final = 1.20172 0.0944952
  Force max component initial, final = 0.102659 0.00779054
  Final line search alpha, max atom move = 9.53674e-07 7.42964e-09
  Iterations, force evaluations = 18 75

MPI task timing breakdown:
Section |  min time  |  avg time  |  max time  |%varavg| %total
---------------------------------------------------------------
Pair    | 0.075311   | 0.082938   | 0.087123   |   1.0 | 38.08
Kspace  | 0.11973    | 0.12204    | 0.1243     |   0.5 | 56.04
Neigh   | 0          | 0          | 0          |   0.0 |  0.00
Comm    | 0.0074837  | 0.011565   | 0.018195   |   2.5 |  5.31
Output  | 0          | 0          | 0          |   0.0 |  0.00
Modify  | 0          | 0          | 0          |   0.0 |  0.00
Other   |            | 0.001234   |            |       |  0.57

Nlocal:    84 ave 88 max 77 min
Histogram: 1 0 0 1 0 2 3 2 0 3
Nghost:    2607.83 ave 2635 max 2584 min
Histogram: 2 4 0 0 0 0 2 1 1 2
Neighs:    18697.8 ave 19641 max 17073 min
Histogram: 1 0 0 1 1 1 4 1 1 2

Total # of neighbors = 224374
Ave neighs/atom = 222.593
Neighbor list builds = 0
Dangerous builds = 0
  triclinic box = (0.0194211 0 0) to (23.2813 23.3007 23.3007) with tilt (0 0 0)
WARNING: Resetting reneighboring criteria during minimization (../min.cpp:168)
Ewald initialization ...
  G vector (1/distance) = 0.365066
  estimated absolute RMS force accuracy = 1.9345e-05
  estimated relative force accuracy = 1.34344e-06
  KSpace vectors: actual max1d max3d = 2084 10 4630
                  kxmax kymax kzmax  = 10 10 10
Memory usage per processor = 4.56197 Mbytes
Step Temp E_pair E_mol TotEng Press 
      43           10   -18273.959            0   -18272.657   -3792.6149 
      50           10   -18273.974            0   -18272.673   -4831.9697 
      59           10   -18273.977            0   -18272.675   -4940.3476 
Loop time of 0.4124 on 12 procs for 16 steps with 1008 atoms

99.8% CPU use with 12 MPI tasks x no OpenMP threads

Minimization stats:
  Stopping criterion = linesearch alpha is zero
  Energy initial, next-to-last, final = 
        -18273.9585213     -18273.9767255     -18273.9767255
  Force two-norm initial, final = 0.59702 0.0607296
  Force max component initial, final = 0.0508328 0.00723034
  Final line search alpha, max atom move = 1.90735e-06 1.37908e-08
  Iterations, force evaluations = 16 143

MPI task timing breakdown:
Section |  min time  |  avg time  |  max time  |%varavg| %total
---------------------------------------------------------------
Pair    | 0.14233    | 0.15656    | 0.16499    |   1.4 | 37.96
Kspace  | 0.22849    | 0.23183    | 0.23606    |   0.6 | 56.22
Neigh   | 0          | 0          | 0          |   0.0 |  0.00
Comm    | 0.014164   | 0.021883   | 0.034497   |   3.4 |  5.31
Output  | 2.408e-05  | 2.4736e-05 | 3.1948e-05 |   0.0 |  0.01
Modify  | 0          | 0          | 0          |   0.0 |  0.00
Other   |            | 0.002095   |            |       |  0.51

Nlocal:    84 ave 88 max 77 min
Histogram: 1 0 0 1 0 2 3 2 0 3
Nghost:    2606.08 ave 2633 max 2583 min
Histogram: 1 5 0 0 0 0 2 0 2 2
Neighs:    18665.8 ave 19610 max 17042 min
Histogram: 1 0 0 1 1 1 4 1 1 2

Total # of neighbors = 223990
Ave neighs/atom = 222.212
Neighbor list builds = 0
Dangerous builds = 0
  triclinic box = (0 0 0) to (23.3007 23.3007 23.3007) with tilt (0 0 0)
WARNING: Resetting reneighboring criteria during minimization (../min.cpp:168)
Ewald initialization ...
  G vector (1/distance) = 0.365055
  estimated absolute RMS force accuracy = 1.94166e-05
  estimated relative force accuracy = 1.34841e-06
  KSpace vectors: actual max1d max3d = 2084 10 4630
                  kxmax kymax kzmax  = 10 10 10
Memory usage per processor = 4.56197 Mbytes
Step Temp E_pair E_mol TotEng Press 
      59           10   -18273.873            0   -18272.571   -7314.0288 
      62           10   -18273.873            0   -18272.571   -7309.9301 
Loop time of 0.0738095 on 12 procs for 3 steps with 1008 atoms

100.2% CPU use with 12 MPI tasks x no OpenMP threads

Minimization stats:
  Stopping criterion = linesearch alpha is zero
  Energy initial, next-to-last, final = 
        -18273.8726745      -18273.872703      -18273.872703
  Force two-norm initial, final = 0.00473893 0.00274546
  Force max component initial, final = 0.000360574 0.000458585
  Final line search alpha, max atom move = 0.000976562 4.47837e-07
  Iterations, force evaluations = 3 25

MPI task timing breakdown:
Section |  min time  |  avg time  |  max time  |%varavg| %total
---------------------------------------------------------------
Pair    | 0.025408   | 0.028092   | 0.029369   |   0.6 | 38.06
Kspace  | 0.040732   | 0.041459   | 0.042189   |   0.2 | 56.17
Neigh   | 0          | 0          | 0          |   0.0 |  0.00
Comm    | 0.0024328  | 0.0038682  | 0.0061452  |   1.5 |  5.24
Output  | 0          | 0          | 0          |   0.0 |  0.00
Modify  | 0          | 0          | 0          |   0.0 |  0.00
Other   |            | 0.0003904  |            |       |  0.53

Nlocal:    84 ave 88 max 77 min
Histogram: 1 0 0 1 0 2 3 2 0 3
Nghost:    2603.42 ave 2630 max 2582 min
Histogram: 1 5 0 0 0 2 0 2 0 2
Neighs:    18635.7 ave 19575 max 17017 min
Histogram: 1 0 0 1 1 1 4 1 1 2

Total # of neighbors = 223628
Ave neighs/atom = 221.853
Neighbor list builds = 0
Dangerous builds = 0
  triclinic box = (-0.0194211 0 0) to (23.3201 23.3007 23.3007) with tilt (0 0 0)
WARNING: Resetting reneighboring criteria during minimization (../min.cpp:168)
Ewald initialization ...
  G vector (1/distance) = 0.365044
  estimated absolute RMS force accuracy = 1.94944e-05
  estimated relative force accuracy = 1.35381e-06
  KSpace vectors: actual max1d max3d = 2084 10 4630
                  kxmax kymax kzmax  = 10 10 10
Memory usage per processor = 4.56197 Mbytes
Step Temp E_pair E_mol TotEng Press 
      62           10   -18273.699            0   -18272.397   -10796.965 
      72           10   -18273.714            0   -18272.413   -9703.0189 
Loop time of 0.177396 on 12 procs for 10 steps with 1008 atoms

99.5% CPU use with 12 MPI tasks x no OpenMP threads

Minimization stats:
  Stopping criterion = linesearch alpha is zero
  Energy initial, next-to-last, final = 
        -18273.6988348     -18273.7141598     -18273.7141598
  Force two-norm initial, final = 0.593164 0.101445
  Force max component initial, final = 0.0500508 0.0112743
  Final line search alpha, max atom move = 9.53674e-07 1.0752e-08
  Iterations, force evaluations = 10 59

MPI task timing breakdown:
Section |  min time  |  avg time  |  max time  |%varavg| %total
---------------------------------------------------------------
Pair    | 0.058125   | 0.064836   | 0.070049   |   1.1 | 36.55
Kspace  | 0.098203   | 0.10105    | 0.1029     |   0.4 | 56.96
Neigh   | 0          | 0          | 0          |   0.0 |  0.00
Comm    | 0.0077758  | 0.010597   | 0.016107   |   2.2 |  5.97
Output  | 0          | 0          | 0          |   0.0 |  0.00
Modify  | 0          | 0          | 0          |   0.0 |  0.00
Other   |            | 0.000914   |            |       |  0.52

Nlocal:    84 ave 88 max 77 min
Histogram: 1 0 0 1 0 2 3 2 0 3
Nghost:    2600.67 ave 2630 max 2577 min
Histogram: 4 2 0 0 0 1 1 0 2 2
Neighs:    18605.7 ave 19542 max 16992 min
Histogram: 1 0 0 1 1 1 4 1 1 2

Total # of neighbors = 223268
Ave neighs/atom = 221.496
Neighbor list builds = 0
Dangerous builds = 0
  triclinic box = (-0.0388306 0 0) to (23.3395 23.3007 23.3007) with tilt (0 0 0)
WARNING: Resetting reneighboring criteria during minimization (../min.cpp:168)
Ewald initialization ...
  G vector (1/distance) = 0.365032
  estimated absolute RMS force accuracy = 1.95788e-05
  estimated relative force accuracy = 1.35968e-06
  KSpace vectors: actual max1d max3d = 2084 10 4630
                  kxmax kymax kzmax  = 10 10 10
Memory usage per processor = 4.56197 Mbytes
Step Temp E_pair E_mol TotEng Press 
      72           10   -18273.446            0   -18272.145   -14241.863 
      90           10   -18273.509            0   -18272.208   -11931.629 
Loop time of 0.216563 on 12 procs for 18 steps with 1008 atoms

99.8% CPU use with 12 MPI tasks x no OpenMP threads

Minimization stats:
  Stopping criterion = linesearch alpha is zero
  Energy initial, next-to-last, final = 
        -18273.4464111     -18273.5094867     -18273.5094867
  Force two-norm initial, final = 1.17808 0.089163
  Force max component initial, final = 0.0990744 0.00796358
  Final line search alpha, max atom move = 9.53674e-07 7.59466e-09
  Iterations, force evaluations = 18 75

MPI task timing breakdown:
Section |  min time  |  avg time  |  max time  |%varavg| %total
---------------------------------------------------------------
Pair    | 0.07333    | 0.082036   | 0.085379   |   1.1 | 37.88
Kspace  | 0.11907    | 0.12139    | 0.12345    |   0.4 | 56.05
Neigh   | 0          | 0          | 0          |   0.0 |  0.00
Comm    | 0.0076857  | 0.01183    | 0.018513   |   2.5 |  5.46
Output  | 0          | 0          | 0          |   0.0 |  0.00
Modify  | 0          | 0          | 0          |   0.0 |  0.00
Other   |            | 0.001309   |            |       |  0.60

Nlocal:    84 ave 88 max 77 min
Histogram: 1 0 0 1 0 2 3 2 0 3
Nghost:    2596.92 ave 2626 max 2572 min
Histogram: 3 2 1 0 0 0 2 1 1 2
Neighs:    18575.1 ave 19517 max 16966 min
Histogram: 1 0 0 1 1 1 4 1 1 2

Total # of neighbors = 222901
Ave neighs/atom = 221.132
Neighbor list builds = 0
Dangerous builds = 0
  triclinic box = (-0.0582517 0 0) to (23.3589 23.3007 23.3007) with tilt (0 0 0)
WARNING: Resetting reneighboring criteria during minimization (../min.cpp:168)
Ewald initialization ...
  G vector (1/distance) = 0.365021
  estimated absolute RMS force accuracy = 1.96704e-05
  estimated relative force accuracy = 1.36604e-06
  KSpace vectors: actual max1d max3d = 2084 10 4630
                  kxmax kymax kzmax  = 10 10 10
Memory usage per processor = 4.56197 Mbytes
Step Temp E_pair E_mol TotEng Press 
      90           10   -18273.114            0   -18271.812   -17652.684 
     100           10   -18273.247            0   -18271.946   -14392.039 
     106           10   -18273.253            0   -18271.952   -14245.158 
Loop time of 0.216009 on 12 procs for 16 steps with 1008 atoms

100.0% CPU use with 12 MPI tasks x no OpenMP threads

Minimization stats:
  Stopping criterion = linesearch alpha is zero
  Energy initial, next-to-last, final = 
        -18273.1136228     -18273.2534249     -18273.2534249
  Force two-norm initial, final = 1.75698 0.168726
  Force max component initial, final = 0.147196 0.0259912
  Final line search alpha, max atom move = 2.38419e-07 6.19678e-09
  Iterations, force evaluations = 16 75

MPI task timing breakdown:
Section |  min time  |  avg time  |  max time  |%varavg| %total
---------------------------------------------------------------
Pair    | 0.074042   | 0.081847   | 0.085514   |   1.0 | 37.89
Kspace  | 0.11949    | 0.12142    | 0.1237     |   0.3 | 56.21
Neigh   | 0          | 0          | 0          |   0.0 |  0.00
Comm    | 0.0073981  | 0.01149    | 0.018208   |   2.5 |  5.32
Output  | 2.2888e-05 | 2.4021e-05 | 3.1948e-05 |   0.0 |  0.01
Modify  | 0          | 0          | 0          |   0.0 |  0.00
Other   |            | 0.001231   |            |       |  0.57

Nlocal:    84 ave 88 max 77 min
Histogram: 1 0 0 1 0 2 3 2 0 3
Nghost:    2593.25 ave 2623 max 2570 min
Histogram: 4 2 0 0 0 1 1 1 1 2
Neighs:    18543.2 ave 19483 max 16938 min
Histogram: 1 0 0 1 1 1 4 1 1 2

Total # of neighbors = 222519
Ave neighs/atom = 220.753
Neighbor list builds = 0
Dangerous builds = 0
  triclinic box = (0 0.0582517 0) to (23.3007 23.2424 23.3007) with tilt (0 0 0)
WARNING: Resetting reneighboring criteria during minimization (../min.cpp:168)
Ewald initialization ...
  G vector (1/distance) = 0.365089
  estimated absolute RMS force accuracy = 1.92191e-05
  estimated relative force accuracy = 1.33469e-06
  KSpace vectors: actual max1d max3d = 2088 10 4630
                  kxmax kymax kzmax  = 10 10 10
Memory usage per processor = 4.56197 Mbytes
Step Temp E_pair E_mol TotEng Press 
     106           10   -18273.905            0   -18272.603    3350.6608 
     119           10   -18274.047            0   -18272.745    -17.74525 
Loop time of 0.205656 on 12 procs for 13 steps with 1008 atoms

100.1% CPU use with 12 MPI tasks x no OpenMP threads

Minimization stats:
  Stopping criterion = linesearch alpha is zero
  Energy initial, next-to-last, final = 
        -18273.9046799     -18274.0467018     -18274.0467018
  Force two-norm initial, final = 1.763 0.237685
  Force max component initial, final = 0.16275 0.0280212
  Final line search alpha, max atom move = 1.19209e-07 3.34039e-09
  Iterations, force evaluations = 13 71

MPI task timing breakdown:
Section |  min time  |  avg time  |  max time  |%varavg| %total
---------------------------------------------------------------
Pair    | 0.070708   | 0.078169   | 0.082043   |   1.1 | 38.01
Kspace  | 0.11368    | 0.11542    | 0.11762    |   0.3 | 56.13
Neigh   | 0          | 0          | 0          |   0.0 |  0.00
Comm    | 0.0070713  | 0.010955   | 0.017266   |   2.4 |  5.33
Output  | 0          | 0          | 0          |   0.0 |  0.00
Modify  | 0          | 0          | 0          |   0.0 |  0.00
Other   |            | 0.001106   |            |       |  0.54

Nlocal:    84 ave 88 max 77 min
Histogram: 1 0 0 1 0 2 3 2 0 3
Nghost:    2614.25 ave 2638 max 2595 min
Histogram: 3 2 1 0 0 1 1 2 0 2
Neighs:    18732.1 ave 19669 max 17103 min
Histogram: 1 0 0 1 1 1 4 1 1 2

Total # of neighbors = 224785
Ave neighs/atom = 223.001
Neighbor list builds = 0
Dangerous builds = 0
  triclinic box = (0 0.0388306 0) to (23.3007 23.2618 23.3007) with tilt (0 0 0)
WARNING: Resetting reneighboring criteria during minimization (../min.cpp:168)
Ewald initialization ...
  G vector (1/distance) = 0.365078
  estimated absolute RMS force accuracy = 1.92793e-05
  estimated relative force accuracy = 1.33888e-06
  KSpace vectors: actual max1d max3d = 2084 10 4630
                  kxmax kymax kzmax  = 10 10 10
Memory usage per processor = 4.56197 Mbytes
Step Temp E_pair E_mol TotEng Press 
     119           10   -18273.979            0   -18272.677   -242.88567 
     140           10   -18274.044            0   -18272.743   -2577.5961 
Loop time of 0.229206 on 12 procs for 21 steps with 1008 atoms

99.8% CPU use with 12 MPI tasks x no OpenMP threads

Minimization stats:
  Stopping criterion = linesearch alpha is zero
  Energy initial, next-to-last, final = 
        -18273.9786216     -18274.0444763     -18274.0444763
  Force two-norm initial, final = 1.16817 0.0758093
  Force max component initial, final = 0.107569 0.0071264
  Final line search alpha, max atom move = 1.90735e-06 1.35925e-08
  Iterations, force evaluations = 21 79

MPI task timing breakdown:
Section |  min time  |  avg time  |  max time  |%varavg| %total
---------------------------------------------------------------
Pair    | 0.079092   | 0.087121   | 0.091045   |   1.0 | 38.01
Kspace  | 0.12653    | 0.1286     | 0.13091    |   0.4 | 56.11
Neigh   | 0          | 0          | 0          |   0.0 |  0.00
Comm    | 0.0078454  | 0.012175   | 0.019135   |   2.6 |  5.31
Output  | 0          | 0          | 0          |   0.0 |  0.00
Modify  | 0          | 0          | 0          |   0.0 |  0.00
Other   |            | 0.001314   |            |       |  0.57

Nlocal:    84 ave 88 max 77 min
Histogram: 1 0 0 1 0 2 3 2 0 3
Nghost:    2610.58 ave 2636 max 2591 min
Histogram: 4 1 1 0 0 2 0 2 0 2
Neighs:    18698.5 ave 19642 max 17072 min
Histogram: 1 0 0 1 1 1 4 1 1 2

Total # of neighbors = 224382
Ave neighs/atom = 222.601
Neighbor list builds = 0
Dangerous builds = 0
  triclinic box = (0 0.0194211 0) to (23.3007 23.2813 23.3007) with tilt (0 0 0)
WARNING: Resetting reneighboring criteria during minimization (../min.cpp:168)
Ewald initialization ...
  G vector (1/distance) = 0.365066
  estimated absolute RMS force accuracy = 1.9345e-05
  estimated relative force accuracy = 1.34344e-06
  KSpace vectors: actual max1d max3d = 2084 10 4630
                  kxmax kymax kzmax  = 10 10 10
Memory usage per processor = 4.56197 Mbytes
Step Temp E_pair E_mol TotEng Press 
     140           10   -18273.968            0   -18272.667   -3796.3765 
     150           10   -18273.985            0   -18272.683   -4878.0117 
     157           10   -18273.986            0   -18272.684     -4935.79 
Loop time of 0.200495 on 12 procs for 17 steps with 1008 atoms

99.8% CPU use with 12 MPI tasks x no OpenMP threads

Minimization stats:
  Stopping criterion = linesearch alpha is zero
  Energy initial, next-to-last, final = 
        -18273.9682253     -18273.9858833     -18273.9858833
  Force two-norm initial, final = 0.580359 0.0557254
  Force max component initial, final = 0.053356 0.00845646
  Final line search alpha, max atom move = 3.8147e-06 3.22588e-08
  Iterations, force evaluations = 17 69

MPI task timing breakdown:
Section |  min time  |  avg time  |  max time  |%varavg| %total
---------------------------------------------------------------
Pair    | 0.068788   | 0.07593    | 0.079537   |   0.9 | 37.87
Kspace  | 0.11113    | 0.11249    | 0.11408    |   0.3 | 56.11
Neigh   | 0          | 0          | 0          |   0.0 |  0.00
Comm    | 0.0071104  | 0.010834   | 0.016978   |   2.4 |  5.40
Output  | 2.5034e-05 | 2.5709e-05 | 3.314e-05  |   0.0 |  0.01
Modify  | 0          | 0          | 0          |   0.0 |  0.00
Other   |            | 0.001213   |            |       |  0.61

Nlocal:    84 ave 88 max 77 min
Histogram: 1 0 0 1 0 2 3 2 0 3
Nghost:    2606.42 ave 2633 max 2588 min
Histogram: 5 1 0 0 0 2 0 2 0 2
Neighs:    18667.8 ave 19606 max 17044 min
Histogram: 1 0 0 1 1 1 4 1 1 2

Total # of neighbors = 224014
Ave neighs/atom = 222.236
Neighbor list builds = 0
Dangerous builds = 0
  triclinic box = (0 0 0) to (23.3007 23.3007 23.3007) with tilt (0 0 0)
WARNING: Resetting reneighboring criteria during minimization (../min.cpp:168)
Ewald initialization ...
  G vector (1/distance) = 0.365055
  estimated absolute RMS force accuracy = 1.94166e-05
  estimated relative force accuracy = 1.34841e-06
  KSpace vectors: actual max1d max3d = 2084 10 4630
                  kxmax kymax kzmax  = 10 10 10
Memory usage per processor = 4.56197 Mbytes
Step Temp E_pair E_mol TotEng Press 
     157           10   -18273.873            0   -18272.571   -7314.0288 
     160           10   -18273.873            0   -18272.571   -7309.9301 
Loop time of 0.0986345 on 12 procs for 3 steps with 1008 atoms

98.5% CPU use with 12 MPI tasks x no OpenMP threads

Minimization stats:
  Stopping criterion = linesearch alpha is zero
  Energy initial, next-to-last, final = 
        -18273.8726745      -18273.872703      -18273.872703
  Force two-norm initial, final = 0.00473893 0.00274546
  Force max component initial, final = 0.000360574 0.000458585
  Final line search alpha, max atom move = 0.000976562 4.47837e-07
  Iterations, force evaluations = 3 25

MPI task timing breakdown:
Section |  min time  |  avg time  |  max time  |%varavg| %total
---------------------------------------------------------------
Pair    | 0.02566    | 0.029399   | 0.041368   |   2.2 | 29.81
Kspace  | 0.05163    | 0.059228   | 0.060682   |   1.0 | 60.05
Neigh   | 0          | 0          | 0          |   0.0 |  0.00
Comm    | 0.0052059  | 0.0094723  | 0.012141   |   1.6 |  9.60
Output  | 0          | 0          | 0          |   0.0 |  0.00
Modify  | 0          | 0          | 0          |   0.0 |  0.00
Other   |            | 0.0005351  |            |       |  0.54

Nlocal:    84 ave 88 max 77 min
Histogram: 1 0 0 1 0 2 3 2 0 3
Nghost:    2603.42 ave 2630 max 2582 min
Histogram: 1 5 0 0 0 2 0 2 0 2
Neighs:    18635.7 ave 19575 max 17017 min
Histogram: 1 0 0 1 1 1 4 1 1 2

Total # of neighbors = 223628
Ave neighs/atom = 221.853
Neighbor list builds = 0
Dangerous builds = 0
  triclinic box = (0 -0.0194211 0) to (23.3007 23.3201 23.3007) with tilt (0 0 0)
WARNING: Resetting reneighboring criteria during minimization (../min.cpp:168)
Ewald initialization ...
  G vector (1/distance) = 0.365044
  estimated absolute RMS force accuracy = 1.94944e-05
  estimated relative force accuracy = 1.35381e-06
  KSpace vectors: actual max1d max3d = 2084 10 4630
                  kxmax kymax kzmax  = 10 10 10
Memory usage per processor = 4.56197 Mbytes
Step Temp E_pair E_mol TotEng Press 
     160           10   -18273.694            0   -18272.392   -10794.191 
     167           10   -18273.708            0   -18272.406   -9803.3228 
Loop time of 0.162756 on 12 procs for 7 steps with 1008 atoms

100.0% CPU use with 12 MPI tasks x no OpenMP threads

Minimization stats:
  Stopping criterion = linesearch alpha is zero
  Energy initial, next-to-last, final = 
        -18273.6937148     -18273.7079524     -18273.7079524
  Force two-norm initial, final = 0.576742 0.158571
  Force max component initial, final = 0.0523876 0.0225441
  Final line search alpha, max atom move = 4.76837e-07 1.07499e-08
  Iterations, force evaluations = 7 55

MPI task timing breakdown:
Section |  min time  |  avg time  |  max time  |%varavg| %total
---------------------------------------------------------------
Pair    | 0.055315   | 0.061092   | 0.064816   |   0.9 | 37.54
Kspace  | 0.090185   | 0.091986   | 0.093726   |   0.3 | 56.52
Neigh   | 0          | 0          | 0          |   0.0 |  0.00
Comm    | 0.0059063  | 0.0087778  | 0.013588   |   2.1 |  5.39
Output  | 0          | 0          | 0          |   0.0 |  0.00
Modify  | 0          | 0          | 0          |   0.0 |  0.00
Other   |            | 0.0009004  |            |       |  0.55

Nlocal:    84 ave 88 max 77 min
Histogram: 1 0 0 1 0 2 3 2 0 3
Nghost:    2601.67 ave 2626 max 2580 min
Histogram: 1 4 1 0 0 0 2 1 1 2
Neighs:    18601.7 ave 19546 max 16983 min
Histogram: 1 0 0 1 1 1 4 1 1 2

Total # of neighbors = 223220
Ave neighs/atom = 221.448
Neighbor list builds = 0
Dangerous builds = 0
  triclinic box = (0 -0.0388306 0) to (23.3007 23.3395 23.3007) with tilt (0 0 0)
WARNING: Resetting reneighboring criteria during minimization (../min.cpp:168)
Ewald initialization ...
  G vector (1/distance) = 0.365032
  estimated absolute RMS force accuracy = 1.95788e-05
  estimated relative force accuracy = 1.35968e-06
  KSpace vectors: actual max1d max3d = 2084 10 4630
                  kxmax kymax kzmax  = 10 10 10
Memory usage per processor = 4.56197 Mbytes
Step Temp E_pair E_mol TotEng Press 
     167           10   -18273.429            0   -18272.127   -14234.489 
     177           10   -18273.491            0   -18272.189   -12100.669 
Loop time of 0.184963 on 12 procs for 10 steps with 1008 atoms

99.8% CPU use with 12 MPI tasks x no OpenMP threads

Minimization stats:
  Stopping criterion = linesearch alpha is zero
  Energy initial, next-to-last, final = 
        -18273.4291464     -18273.4907511     -18273.4907511
  Force two-norm initial, final = 1.14533 0.220627
  Force max component initial, final = 0.103821 0.019334
  Final line search alpha, max atom move = 2.38419e-07 4.60959e-09
  Iterations, force evaluations = 10 63

MPI task timing breakdown:
Section |  min time  |  avg time  |  max time  |%varavg| %total
---------------------------------------------------------------
Pair    | 0.063475   | 0.070042   | 0.072935   |   0.9 | 37.87
Kspace  | 0.10277    | 0.10401    | 0.10525    |   0.2 | 56.24
Neigh   | 0          | 0          | 0          |   0.0 |  0.00
Comm    | 0.0063996  | 0.0099851  | 0.01576    |   2.3 |  5.40
Output  | 0          | 0          | 0          |   0.0 |  0.00
Modify  | 0          | 0          | 0          |   0.0 |  0.00
Other   |            | 0.0009211  |            |       |  0.50

Nlocal:    84 ave 88 max 77 min
Histogram: 1 0 0 1 0 2 3 2 0 3
Nghost:    2597.92 ave 2620 max 2577 min
Histogram: 1 4 1 0 0 0 2 0 2 2
Neighs:    18568.9 ave 19510 max 16947 min
Histogram: 1 0 0 1 1 1 4 1 1 2

Total # of neighbors = 222827
Ave neighs/atom = 221.059
Neighbor list builds = 0
Dangerous builds = 0
  triclinic box = (0 -0.0582517 0) to (23.3007 23.3589 23.3007) with tilt (0 0 0)
WARNING: Resetting reneighboring criteria during minimization (../min.cpp:168)
Ewald initialization ...
  G vector (1/distance) = 0.365021
  estimated absolute RMS force accuracy = 1.96704e-05
  estimated relative force accuracy = 1.36604e-06
  KSpace vectors: actual max1d max3d = 2084 10 4630
                  kxmax kymax kzmax  = 10 10 10
Memory usage per processor = 4.56197 Mbytes
Step Temp E_pair E_mol TotEng Press 
     177           10   -18273.087            0   -18271.785   -17641.083 
     197           10   -18273.229            0   -18271.927   -14217.055 
Loop time of 0.232145 on 12 procs for 20 steps with 1008 atoms

100.0% CPU use with 12 MPI tasks x no OpenMP threads

Minimization stats:
  Stopping criterion = linesearch alpha is zero
  Energy initial, next-to-last, final = 
        -18273.0866969     -18273.2287938     -18273.2287938
  Force two-norm initial, final = 1.70813 0.130088
  Force max component initial, final = 0.154244 0.0144972
  Final line search alpha, max atom move = 4.76837e-07 6.9128e-09
  Iterations, force evaluations = 20 81

MPI task timing breakdown:
Section |  min time  |  avg time  |  max time  |%varavg| %total
---------------------------------------------------------------
Pair    | 0.080231   | 0.087855   | 0.091823   |   0.9 | 37.84
Kspace  | 0.12926    | 0.13069    | 0.13208    |   0.3 | 56.30
Neigh   | 0          | 0          | 0          |   0.0 |  0.00
Comm    | 0.0079746  | 0.012357   | 0.019526   |   2.6 |  5.32
Output  | 0          | 0          | 0          |   0.0 |  0.00
Modify  | 0          | 0          | 0          |   0.0 |  0.00
Other   |            | 0.001247   |            |       |  0.54

Nlocal:    84 ave 88 max 77 min
Histogram: 1 0 0 1 0 2 3 2 0 3
Nghost:    2597.92 ave 2620 max 2577 min
Histogram: 1 4 1 0 0 0 2 0 2 2
Neighs:    18538.9 ave 19484 max 16916 min
Histogram: 1 0 0 1 1 1 4 1 1 2

Total # of neighbors = 222467
Ave neighs/atom = 220.701
Neighbor list builds = 0
Dangerous builds = 0
  triclinic box = (0 0 0.0582517) to (23.3007 23.3007 23.2424) with tilt (0 0 0)
WARNING: Resetting reneighboring criteria during minimization (../min.cpp:168)
Ewald initialization ...
  G vector (1/distance) = 0.365089
  estimated absolute RMS force accuracy = 1.92191e-05
  estimated relative force accuracy = 1.33469e-06
  KSpace vectors: actual max1d max3d = 2088 10 4630
                  kxmax kymax kzmax  = 10 10 10
Memory usage per processor = 4.56197 Mbytes
Step Temp E_pair E_mol TotEng Press 
     197           10   -18273.846            0   -18272.544    3232.9792 
     200           10    -18273.95            0   -18272.648    924.81046 
     214           10   -18273.993            0   -18272.691    -404.4188 
Loop time of 0.223083 on 12 procs for 17 steps with 1008 atoms

100.0% CPU use with 12 MPI tasks x no OpenMP threads

Minimization stats:
  Stopping criterion = linesearch alpha is zero
  Energy initial, next-to-last, final = 
         -18273.845802     -18273.9930759     -18273.9930759
  Force two-norm initial, final = 1.88096 0.174345
  Force max component initial, final = 0.147645 0.0191288
  Final line search alpha, max atom move = 2.38419e-07 4.56066e-09
  Iterations, force evaluations = 17 77

MPI task timing breakdown:
Section |  min time  |  avg time  |  max time  |%varavg| %total
---------------------------------------------------------------
Pair    | 0.076222   | 0.08492    | 0.08905    |   1.1 | 38.07
Kspace  | 0.12268    | 0.12507    | 0.12816    |   0.4 | 56.07
Neigh   | 0          | 0          | 0          |   0.0 |  0.00
Comm    | 0.0075953  | 0.011835   | 0.018751   |   2.6 |  5.31
Output  | 2.0027e-05 | 2.1636e-05 | 2.5988e-05 |   0.0 |  0.01
Modify  | 0          | 0          | 0          |   0.0 |  0.00
Other   |            | 0.001233   |            |       |  0.55

Nlocal:    84 ave 88 max 77 min
Histogram: 1 0 0 1 0 2 3 2 0 3
Nghost:    2607.92 ave 2634 max 2586 min
Histogram: 1 4 1 0 0 1 1 2 0 2
Neighs:    18725.8 ave 19664 max 17094 min
Histogram: 1 0 0 1 1 1 4 1 0 3

Total # of neighbors = 224709
Ave neighs/atom = 222.926
Neighbor list builds = 0
Dangerous builds = 0
  triclinic box = (0 0 0.0388306) to (23.3007 23.3007 23.2618) with tilt (0 0 0)
WARNING: Resetting reneighboring criteria during minimization (../min.cpp:168)
Ewald initialization ...
  G vector (1/distance) = 0.365078
  estimated absolute RMS force accuracy = 1.92793e-05
  estimated relative force accuracy = 1.33888e-06
  KSpace vectors: actual max1d max3d = 2084 10 4630
                  kxmax kymax kzmax  = 10 10 10
Memory usage per processor = 4.56197 Mbytes
Step Temp E_pair E_mol TotEng Press 
     214           10   -18273.938            0   -18272.636   -320.35424 
     227           10       -18274            0   -18272.698   -2643.6523 
Loop time of 0.20734 on 12 procs for 13 steps with 1008 atoms

99.6% CPU use with 12 MPI tasks x no OpenMP threads

Minimization stats:
  Stopping criterion = linesearch alpha is zero
  Energy initial, next-to-last, final = 
        -18273.9378272     -18273.9995703     -18273.9995703
  Force two-norm initial, final = 1.24637 0.162372
  Force max component initial, final = 0.0976338 0.0198091
  Final line search alpha, max atom move = 2.38419e-07 4.72287e-09
  Iterations, force evaluations = 13 69

MPI task timing breakdown:
Section |  min time  |  avg time  |  max time  |%varavg| %total
---------------------------------------------------------------
Pair    | 0.070684   | 0.078365   | 0.082343   |   1.1 | 37.80
Kspace  | 0.11377    | 0.11622    | 0.11879    |   0.5 | 56.05
Neigh   | 0          | 0          | 0          |   0.0 |  0.00
Comm    | 0.0078893  | 0.011586   | 0.017703   |   2.3 |  5.59
Output  | 0          | 0          | 0          |   0.0 |  0.00
Modify  | 0          | 0          | 0          |   0.0 |  0.00
Other   |            | 0.001167   |            |       |  0.56

Nlocal:    84 ave 88 max 77 min
Histogram: 1 0 0 1 0 2 3 2 0 3
Nghost:    2606.17 ave 2633 max 2585 min
Histogram: 2 4 0 0 0 2 0 2 0 2
Neighs:    18695.4 ave 19635 max 17068 min
Histogram: 1 0 0 1 1 1 4 1 1 2

Total # of neighbors = 224345
Ave neighs/atom = 222.564
Neighbor list builds = 0
Dangerous builds = 0
  triclinic box = (0 0 0.0194211) to (23.3007 23.3007 23.2813) with tilt (0 0 0)
WARNING: Resetting reneighboring criteria during minimization (../min.cpp:168)
Ewald initialization ...
  G vector (1/distance) = 0.365066
  estimated absolute RMS force accuracy = 1.9345e-05
  estimated relative force accuracy = 1.34344e-06
  KSpace vectors: actual max1d max3d = 2084 10 4630
                  kxmax kymax kzmax  = 10 10 10
Memory usage per processor = 4.56197 Mbytes
Step Temp E_pair E_mol TotEng Press 
     227           10   -18273.945            0   -18272.643   -3834.0391 
     244           10    -18273.96            0   -18272.659    -5023.673 
Loop time of 0.216493 on 12 procs for 17 steps with 1008 atoms

100.0% CPU use with 12 MPI tasks x no OpenMP threads

Minimization stats:
  Stopping criterion = linesearch alpha is zero
  Energy initial, next-to-last, final = 
        -18273.9445026     -18273.9604264     -18273.9604264
  Force two-norm initial, final = 0.619227 0.0569029
  Force max component initial, final = 0.0484378 0.00663481
  Final line search alpha, max atom move = 3.8147e-06 2.53098e-08
  Iterations, force evaluations = 17 73

MPI task timing breakdown:
Section |  min time  |  avg time  |  max time  |%varavg| %total
---------------------------------------------------------------
Pair    | 0.073981   | 0.081897   | 0.086109   |   1.1 | 37.83
Kspace  | 0.11912    | 0.12109    | 0.12358    |   0.4 | 55.93
Neigh   | 0          | 0          | 0          |   0.0 |  0.00
Comm    | 0.008127   | 0.012202   | 0.018838   |   2.4 |  5.64
Output  | 0          | 0          | 0          |   0.0 |  0.00
Modify  | 0          | 0          | 0          |   0.0 |  0.00
Other   |            | 0.001306   |            |       |  0.60

Nlocal:    84 ave 88 max 77 min
Histogram: 1 0 0 1 0 2 3 2 0 3
Nghost:    2604.67 ave 2633 max 2585 min
Histogram: 3 3 0 0 0 2 0 2 0 2
Neighs:    18665.2 ave 19608 max 17044 min
Histogram: 1 0 0 1 1 1 4 1 1 2

Total # of neighbors = 223982
Ave neighs/atom = 222.204
Neighbor list builds = 0
Dangerous builds = 0
  triclinic box = (0 0 0) to (23.3007 23.3007 23.3007) with tilt (0 0 0)
WARNING: Resetting reneighboring criteria during minimization (../min.cpp:168)
Ewald initialization ...
  G vector (1/distance) = 0.365055
  estimated absolute RMS force accuracy = 1.94166e-05
  estimated relative force accuracy = 1.34841e-06
  KSpace vectors: actual max1d max3d = 2084 10 4630
                  kxmax kymax kzmax  = 10 10 10
Memory usage per processor = 4.56197 Mbytes
Step Temp E_pair E_mol TotEng Press 
     244           10   -18273.873            0   -18272.571   -7314.0288 
     247           10   -18273.873            0   -18272.571   -7309.9301 
Loop time of 0.0760299 on 12 procs for 3 steps with 1008 atoms

99.8% CPU use with 12 MPI tasks x no OpenMP threads

Minimization stats:
  Stopping criterion = linesearch alpha is zero
  Energy initial, next-to-last, final = 
        -18273.8726745      -18273.872703      -18273.872703
  Force two-norm initial, final = 0.00473893 0.00274546
  Force max component initial, final = 0.000360574 0.000458585
  Final line search alpha, max atom move = 0.000976562 4.47837e-07
  Iterations, force evaluations = 3 25

MPI task timing breakdown:
Section |  min time  |  avg time  |  max time  |%varavg| %total
---------------------------------------------------------------
Pair    | 0.026104   | 0.028838   | 0.030089   |   0.6 | 37.93
Kspace  | 0.041764   | 0.042559   | 0.043613   |   0.3 | 55.98
Neigh   | 0          | 0          | 0          |   0.0 |  0.00
Comm    | 0.0030267  | 0.0042423  | 0.0063748  |   1.3 |  5.58
Output  | 0          | 0          | 0          |   0.0 |  0.00
Modify  | 0          | 0          | 0          |   0.0 |  0.00
Other   |            | 0.0003914  |            |       |  0.51

Nlocal:    84 ave 88 max 77 min
Histogram: 1 0 0 1 0 2 3 2 0 3
Nghost:    2603.42 ave 2630 max 2582 min
Histogram: 1 5 0 0 0 2 0 2 0 2
Neighs:    18635.7 ave 19575 max 17017 min
Histogram: 1 0 0 1 1 1 4 1 1 2

Total # of neighbors = 223628
Ave neighs/atom = 221.853
Neighbor list builds = 0
Dangerous builds = 0
  triclinic box = (0 0 -0.0194211) to (23.3007 23.3007 23.3201) with tilt (0 0 0)
WARNING: Resetting reneighboring criteria during minimization (../min.cpp:168)
Ewald initialization ...
  G vector (1/distance) = 0.365044
  estimated absolute RMS force accuracy = 1.94944e-05
  estimated relative force accuracy = 1.35381e-06
  KSpace vectors: actual max1d max3d = 2084 10 4630
                  kxmax kymax kzmax  = 10 10 10
Memory usage per processor = 4.56197 Mbytes
Step Temp E_pair E_mol TotEng Press 
     247           10   -18273.715            0   -18272.413   -10756.471 
     250           10   -18273.728            0   -18272.426   -9972.9308 
     258           10   -18273.731            0    -18272.43   -9624.7824 
Loop time of 0.18563 on 12 procs for 11 steps with 1008 atoms

99.5% CPU use with 12 MPI tasks x no OpenMP threads

Minimization stats:
  Stopping criterion = linesearch alpha is zero
  Energy initial, next-to-last, final = 
        -18273.7151318     -18273.7314001     -18273.7314001
  Force two-norm initial, final = 0.615373 0.0973735
  Force max component initial, final = 0.0476565 0.0093608
  Final line search alpha, max atom move = 9.53674e-07 8.92715e-09
  Iterations, force evaluations = 11 63

MPI task timing breakdown:
Section |  min time  |  avg time  |  max time  |%varavg| %total
---------------------------------------------------------------
Pair    | 0.062887   | 0.069896   | 0.073449   |   1.0 | 37.65
Kspace  | 0.10258    | 0.10454    | 0.10595    |   0.3 | 56.31
Neigh   | 0          | 0          | 0          |   0.0 |  0.00
Comm    | 0.0063674  | 0.0102     | 0.016165   |   2.4 |  5.49
Output  | 2.2888e-05 | 2.3226e-05 | 2.6941e-05 |   0.0 |  0.01
Modify  | 0          | 0          | 0          |   0.0 |  0.00
Other   |            | 0.0009735  |            |       |  0.52

Nlocal:    84 ave 88 max 77 min
Histogram: 1 0 0 1 0 2 3 2 0 3
Nghost:    2601.17 ave 2628 max 2578 min
Histogram: 1 3 2 0 0 2 0 1 1 2
Neighs:    18602.7 ave 19541 max 16984 min
Histogram: 1 0 0 1 1 1 4 1 1 2

Total # of neighbors = 223232
Ave neighs/atom = 221.46
Neighbor list builds = 0
Dangerous builds = 0
  triclinic box = (0 0 -0.0388306) to (23.3007 23.3007 23.3395) with tilt (0 0 0)
WARNING: Resetting reneighboring criteria during minimization (../min.cpp:168)
Ewald initialization ...
  G vector (1/distance) = 0.365032
  estimated absolute RMS force accuracy = 1.95788e-05
  estimated relative force accuracy = 1.35968e-06
  KSpace vectors: actual max1d max3d = 2084 10 4630
                  kxmax kymax kzmax  = 10 10 10
Memory usage per processor = 4.56197 Mbytes
Step Temp E_pair E_mol TotEng Press 
     258           10   -18273.477            0   -18272.175   -14160.689 
     270           10   -18273.541            0    -18272.24   -11896.013 
Loop time of 0.194102 on 12 procs for 12 steps with 1008 atoms

99.8% CPU use with 12 MPI tasks x no OpenMP threads

Minimization stats:
  Stopping criterion = linesearch alpha is zero
  Energy initial, next-to-last, final = 
        -18273.4765819      -18273.541222      -18273.541222
  Force two-norm initial, final = 1.22228 0.17108
  Force max component initial, final = 0.0945343 0.0154157
  Final line search alpha, max atom move = 2.38419e-07 3.67539e-09
  Iterations, force evaluations = 12 67

MPI task timing breakdown:
Section |  min time  |  avg time  |  max time  |%varavg| %total
---------------------------------------------------------------
Pair    | 0.066843   | 0.073797   | 0.076934   |   1.0 | 38.02
Kspace  | 0.10754    | 0.10899    | 0.11121    |   0.3 | 56.15
Neigh   | 0          | 0          | 0          |   0.0 |  0.00
Comm    | 0.0066884  | 0.010297   | 0.016194   |   2.4 |  5.30
Output  | 0          | 0          | 0          |   0.0 |  0.00
Modify  | 0          | 0          | 0          |   0.0 |  0.00
Other   |            | 0.001013   |            |       |  0.52

Nlocal:    84 ave 88 max 77 min
Histogram: 1 0 0 1 0 2 3 2 0 3
Nghost:    2598.92 ave 2627 max 2576 min
Histogram: 3 2 1 0 0 2 0 2 0 2
Neighs:    18570.4 ave 19517 max 16948 min
Histogram: 1 0 0 1 1 1 4 1 1 2

Total # of neighbors = 222845
Ave neighs/atom = 221.076
Neighbor list builds = 0
Dangerous builds = 0
  triclinic box = (0 0 -0.0582517) to (23.3007 23.3007 23.3589) with tilt (0 0 0)
WARNING: Resetting reneighboring criteria during minimization (../min.cpp:168)
Ewald initialization ...
  G vector (1/distance) = 0.365021
  estimated absolute RMS force accuracy = 1.96704e-05
  estimated relative force accuracy = 1.36604e-06
  KSpace vectors: actual max1d max3d = 2084 10 4630
                  kxmax kymax kzmax  = 10 10 10
Memory usage per processor = 4.56197 Mbytes
Step Temp E_pair E_mol TotEng Press 
     270           10   -18273.155            0   -18271.853   -17530.462 
     288           10   -18273.301            0       -18272    -14032.19 
Loop time of 0.348569 on 12 procs for 18 steps with 1008 atoms

100.1% CPU use with 12 MPI tasks x no OpenMP threads

Minimization stats:
  Stopping criterion = linesearch alpha is zero
  Energy initial, next-to-last, final = 
        -18273.1545667     -18273.3011892     -18273.3011892
  Force two-norm initial, final = 1.82294 0.159569
  Force max component initial, final = 0.140678 0.0140536
  Final line search alpha, max atom move = 4.76837e-07 6.70127e-09
  Iterations, force evaluations = 18 119

MPI task timing breakdown:
Section |  min time  |  avg time  |  max time  |%varavg| %total
---------------------------------------------------------------
Pair    | 0.11917    | 0.13179    | 0.13792    |   1.4 | 37.81
Kspace  | 0.19127    | 0.1956     | 0.19981    |   0.5 | 56.11
Neigh   | 0          | 0          | 0          |   0.0 |  0.00
Comm    | 0.012743   | 0.019375   | 0.030078   |   3.1 |  5.56
Output  | 0          | 0          | 0          |   0.0 |  0.00
Modify  | 0          | 0          | 0          |   0.0 |  0.00
Other   |            | 0.001806   |            |       |  0.52

Nlocal:    84 ave 88 max 77 min
Histogram: 1 0 0 1 0 2 3 2 0 3
Nghost:    2595.92 ave 2627 max 2575 min
Histogram: 3 2 1 1 0 2 0 1 0 2
Neighs:    18539.4 ave 19483 max 16922 min
Histogram: 1 0 0 1 1 1 4 1 1 2

Total # of neighbors = 222473
Ave neighs/atom = 220.707
Neighbor list builds = 0
Dangerous builds = 0
  triclinic box = (0 0 0) to (23.3007 23.3007 23.3007) with tilt (-0.116503 0 0)
WARNING: Resetting reneighboring criteria during minimization (../min.cpp:168)
Ewald initialization ...
  G vector (1/distance) = 0.365055
  estimated absolute RMS force accuracy = 1.94166e-05
  estimated relative force accuracy = 1.34841e-06
  KSpace vectors: actual max1d max3d = 2079 10 4630
                  kxmax kymax kzmax  = 10 10 10
Memory usage per processor = 4.56197 Mbytes
Step Temp E_pair E_mol TotEng Press 
     288           10   -18273.634            0   -18272.332   -7262.9924 
     300           10   -18273.691            0   -18272.389   -7221.6622 
     305           10   -18273.692            0    -18272.39   -7205.6936 
Loop time of 0.215212 on 12 procs for 17 steps with 1008 atoms

99.8% CPU use with 12 MPI tasks x no OpenMP threads

Minimization stats:
  Stopping criterion = linesearch alpha is zero
  Energy initial, next-to-last, final = 
        -18273.6338824     -18273.6917335     -18273.6917335
  Force two-norm initial, final = 1.22567 0.0953414
  Force max component initial, final = 0.12795 0.0104517
  Final line search alpha, max atom move = 9.53674e-07 9.96754e-09
  Iterations, force evaluations = 17 73

MPI task timing breakdown:
Section |  min time  |  avg time  |  max time  |%varavg| %total
---------------------------------------------------------------
Pair    | 0.073327   | 0.081302   | 0.085466   |   1.2 | 37.78
Kspace  | 0.11828    | 0.12052    | 0.12263    |   0.4 | 56.00
Neigh   | 0          | 0          | 0          |   0.0 |  0.00
Comm    | 0.0077212  | 0.012187   | 0.019175   |   2.5 |  5.66
Output  | 2.3127e-05 | 2.41e-05   | 2.9087e-05 |   0.0 |  0.01
Modify  | 0          | 0          | 0          |   0.0 |  0.00
Other   |            | 0.001178   |            |       |  0.55

Nlocal:    84 ave 88 max 77 min
Histogram: 1 0 0 1 0 2 3 2 0 3
Nghost:    2603.42 ave 2630 max 2582 min
Histogram: 1 5 0 0 0 2 0 2 0 2
Neighs:    18633.9 ave 19574 max 17010 min
Histogram: 1 0 0 1 1 1 4 1 1 2

Total # of neighbors = 223607
Ave neighs/atom = 221.832
Neighbor list builds = 0
Dangerous builds = 0
  triclinic box = (0 0 0) to (23.3007 23.3007 23.3007) with tilt (-0.077661 0 0)
WARNING: Resetting reneighboring criteria during minimization (../min.cpp:168)
Ewald initialization ...
  G vector (1/distance) = 0.365055
  estimated absolute RMS force accuracy = 1.94166e-05
  estimated relative force accuracy = 1.34841e-06
  KSpace vectors: actual max1d max3d = 2081 10 4630
                  kxmax kymax kzmax  = 10 10 10
Memory usage per processor = 4.56197 Mbytes
Step Temp E_pair E_mol TotEng Press 
     305           10   -18273.737            0   -18272.435   -7283.4668 
     317           10   -18273.765            0   -18272.463    -7249.601 
Loop time of 0.183456 on 12 procs for 12 steps with 1008 atoms

99.7% CPU use with 12 MPI tasks x no OpenMP threads

Minimization stats:
  Stopping criterion = linesearch alpha is zero
  Energy initial, next-to-last, final = 
        -18273.7369205     -18273.7649553     -18273.7649553
  Force two-norm initial, final = 0.817005 0.100794
  Force max component initial, final = 0.0852043 0.00959043
  Final line search alpha, max atom move = 9.53674e-07 9.14615e-09
  Iterations, force evaluations = 12 63

MPI task timing breakdown:
Section |  min time  |  avg time  |  max time  |%varavg| %total
---------------------------------------------------------------
Pair    | 0.0631     | 0.069674   | 0.07301    |   1.0 | 37.98
Kspace  | 0.10101    | 0.10303    | 0.10495    |   0.4 | 56.16
Neigh   | 0          | 0          | 0          |   0.0 |  0.00
Comm    | 0.006284   | 0.0097232  | 0.015376   |   2.3 |  5.30
Output  | 0          | 0          | 0          |   0.0 |  0.00
Modify  | 0          | 0          | 0          |   0.0 |  0.00
Other   |            | 0.001033   |            |       |  0.56

Nlocal:    84 ave 88 max 77 min
Histogram: 1 0 0 1 0 2 3 2 0 3
Nghost:    2603.42 ave 2630 max 2582 min
Histogram: 1 5 0 0 0 2 0 2 0 2
Neighs:    18633.9 ave 19576 max 17008 min
Histogram: 1 0 0 1 1 1 4 1 1 2

Total # of neighbors = 223607
Ave neighs/atom = 221.832
Neighbor list builds = 0
Dangerous builds = 0
  triclinic box = (0 0 0) to (23.3007 23.3007 23.3007) with tilt (-0.038842 0 0)
WARNING: Resetting reneighboring criteria during minimization (../min.cpp:168)
Ewald initialization ...
  G vector (1/distance) = 0.365055
  estimated absolute RMS force accuracy = 1.94166e-05
  estimated relative force accuracy = 1.34841e-06
  KSpace vectors: actual max1d max3d = 2082 10 4630
                  kxmax kymax kzmax  = 10 10 10
Memory usage per processor = 4.56197 Mbytes
Step Temp E_pair E_mol TotEng Press 
     317           10    -18273.82            0   -18272.518   -7301.2692 
     323           10   -18273.826            0   -18272.524   -7279.5872 
Loop time of 0.149477 on 12 procs for 6 steps with 1008 atoms

99.9% CPU use with 12 MPI tasks x no OpenMP threads

Minimization stats:
  Stopping criterion = linesearch alpha is zero
  Energy initial, next-to-last, final = 
        -18273.8196832     -18273.8256414     -18273.8256414
  Force two-norm initial, final = 0.408666 0.108455
  Force max component initial, final = 0.0425874 0.0104391
  Final line search alpha, max atom move = 9.53674e-07 9.95547e-09
  Iterations, force evaluations = 6 51

MPI task timing breakdown:
Section |  min time  |  avg time  |  max time  |%varavg| %total
---------------------------------------------------------------
Pair    | 0.051301   | 0.056638   | 0.059513   |   0.8 | 37.89
Kspace  | 0.082722   | 0.084136   | 0.085669   |   0.3 | 56.29
Neigh   | 0          | 0          | 0          |   0.0 |  0.00
Comm    | 0.0054657  | 0.0079158  | 0.012224   |   2.0 |  5.30
Output  | 0          | 0          | 0          |   0.0 |  0.00
Modify  | 0          | 0          | 0          |   0.0 |  0.00
Other   |            | 0.0007868  |            |       |  0.53

Nlocal:    84 ave 88 max 77 min
Histogram: 1 0 0 1 0 2 3 2 0 3
Nghost:    2603.42 ave 2630 max 2582 min
Histogram: 1 5 0 0 0 2 0 2 0 2
Neighs:    18634.8 ave 19574 max 17016 min
Histogram: 1 0 0 1 1 1 4 1 1 2

Total # of neighbors = 223618
Ave neighs/atom = 221.843
Neighbor list builds = 0
Dangerous builds = 0
  triclinic box = (0 0 0) to (23.3007 23.3007 23.3007) with tilt (0 0 0)
WARNING: Resetting reneighboring criteria during minimization (../min.cpp:168)
Ewald initialization ...
  G vector (1/distance) = 0.365055
  estimated absolute RMS force accuracy = 1.94166e-05
  estimated relative force accuracy = 1.34841e-06
  KSpace vectors: actual max1d max3d = 2084 10 4630
                  kxmax kymax kzmax  = 10 10 10
Memory usage per processor = 4.56197 Mbytes
Step Temp E_pair E_mol TotEng Press 
     323           10   -18273.873            0   -18272.571   -7314.0288 
     326           10   -18273.873            0   -18272.571   -7309.9301 
Loop time of 0.0767172 on 12 procs for 3 steps with 1008 atoms

100.1% CPU use with 12 MPI tasks x no OpenMP threads

Minimization stats:
  Stopping criterion = linesearch alpha is zero
  Energy initial, next-to-last, final = 
        -18273.8726745      -18273.872703      -18273.872703
  Force two-norm initial, final = 0.00473893 0.00274546
  Force max component initial, final = 0.000360574 0.000458585
  Final line search alpha, max atom move = 0.000976562 4.47837e-07
  Iterations, force evaluations = 3 25

MPI task timing breakdown:
Section |  min time  |  avg time  |  max time  |%varavg| %total
---------------------------------------------------------------
Pair    | 0.026188   | 0.028865   | 0.03026    |   0.6 | 37.62
Kspace  | 0.042443   | 0.043026   | 0.044065   |   0.2 | 56.08
Neigh   | 0          | 0          | 0          |   0.0 |  0.00
Comm    | 0.0030882  | 0.0043833  | 0.0065782  |   1.4 |  5.71
Output  | 0          | 0          | 0          |   0.0 |  0.00
Modify  | 0          | 0          | 0          |   0.0 |  0.00
Other   |            | 0.000443   |            |       |  0.58

Nlocal:    84 ave 88 max 77 min
Histogram: 1 0 0 1 0 2 3 2 0 3
Nghost:    2603.42 ave 2630 max 2582 min
Histogram: 1 5 0 0 0 2 0 2 0 2
Neighs:    18635.7 ave 19575 max 17017 min
Histogram: 1 0 0 1 1 1 4 1 1 2

Total # of neighbors = 223628
Ave neighs/atom = 221.853
Neighbor list builds = 0
Dangerous builds = 0
  triclinic box = (0 0 0) to (23.3007 23.3007 23.3007) with tilt (0.038842 0 0)
WARNING: Resetting reneighboring criteria during minimization (../min.cpp:168)
Ewald initialization ...
  G vector (1/distance) = 0.365055
  estimated absolute RMS force accuracy = 1.94166e-05
  estimated relative force accuracy = 1.34841e-06
  KSpace vectors: actual max1d max3d = 2082 10 4630
                  kxmax kymax kzmax  = 10 10 10
Memory usage per processor = 4.56197 Mbytes
Step Temp E_pair E_mol TotEng Press 
     326           10   -18273.895            0   -18272.593   -7321.3553 
     330           10     -18273.9            0   -18272.598   -7331.4474 
Loop time of 0.147634 on 12 procs for 4 steps with 1008 atoms

99.7% CPU use with 12 MPI tasks x no OpenMP threads

Minimization stats:
  Stopping criterion = linesearch alpha is zero
  Energy initial, next-to-last, final = 
        -18273.8947958     -18273.8999242     -18273.8999242
  Force two-norm initial, final = 0.408357 0.154236
  Force max component initial, final = 0.0423743 0.0193482
  Final line search alpha, max atom move = 4.76837e-07 9.22592e-09
  Iterations, force evaluations = 4 49

MPI task timing breakdown:
Section |  min time  |  avg time  |  max time  |%varavg| %total
---------------------------------------------------------------
Pair    | 0.050194   | 0.055278   | 0.058125   |   0.9 | 37.44
Kspace  | 0.081487   | 0.083046   | 0.084455   |   0.3 | 56.25
Neigh   | 0          | 0          | 0          |   0.0 |  0.00
Comm    | 0.0053992  | 0.0085685  | 0.013541   |   2.2 |  5.80
Output  | 0          | 0          | 0          |   0.0 |  0.00
Modify  | 0          | 0          | 0          |   0.0 |  0.00
Other   |            | 0.0007414  |            |       |  0.50

Nlocal:    84 ave 88 max 77 min
Histogram: 1 0 0 1 0 2 3 2 0 3
Nghost:    2603.42 ave 2630 max 2582 min
Histogram: 1 5 0 0 0 2 0 2 0 2
Neighs:    18635.8 ave 19582 max 17018 min
Histogram: 1 0 0 1 1 1 4 1 1 2

Total # of neighbors = 223630
Ave neighs/atom = 221.855
Neighbor list builds = 0
Dangerous builds = 0
  triclinic box = (0 0 0) to (23.3007 23.3007 23.3007) with tilt (0.077661 0 0)
WARNING: Resetting reneighboring criteria during minimization (../min.cpp:168)
Ewald initialization ...
  G vector (1/distance) = 0.365055
  estimated absolute RMS force accuracy = 1.94166e-05
  estimated relative force accuracy = 1.34841e-06
  KSpace vectors: actual max1d max3d = 2081 10 4630
                  kxmax kymax kzmax  = 10 10 10
Memory usage per processor = 4.56197 Mbytes
Step Temp E_pair E_mol TotEng Press 
     330           10   -18273.889            0   -18272.587   -7324.1935 
     338           10   -18273.912            0   -18272.611   -7360.7884 
Loop time of 0.174385 on 12 procs for 8 steps with 1008 atoms

100.0% CPU use with 12 MPI tasks x no OpenMP threads

Minimization stats:
  Stopping criterion = linesearch alpha is zero
  Energy initial, next-to-last, final = 
        -18273.8890872     -18273.9122396     -18273.9122396
  Force two-norm initial, final = 0.816578 0.166521
  Force max component initial, final = 0.0846727 0.0161006
  Final line search alpha, max atom move = 2.38419e-07 3.83868e-09
  Iterations, force evaluations = 8 59

MPI task timing breakdown:
Section |  min time  |  avg time  |  max time  |%varavg| %total
---------------------------------------------------------------
Pair    | 0.060113   | 0.06663    | 0.069838   |   1.0 | 38.21
Kspace  | 0.095584   | 0.097737   | 0.099782   |   0.4 | 56.05
Neigh   | 0          | 0          | 0          |   0.0 |  0.00
Comm    | 0.0061538  | 0.0091407  | 0.014201   |   2.2 |  5.24
Output  | 0          | 0          | 0          |   0.0 |  0.00
Modify  | 0          | 0          | 0          |   0.0 |  0.00
Other   |            | 0.0008773  |            |       |  0.50

Nlocal:    84 ave 88 max 77 min
Histogram: 1 0 0 1 0 2 3 2 0 3
Nghost:    2603.42 ave 2630 max 2582 min
Histogram: 1 5 0 0 0 2 0 2 0 2
Neighs:    18634.8 ave 19576 max 17017 min
Histogram: 1 0 0 1 1 1 4 1 1 2

Total # of neighbors = 223617
Ave neighs/atom = 221.842
Neighbor list builds = 0
Dangerous builds = 0
  triclinic box = (0 0 0) to (23.3007 23.3007 23.3007) with tilt (0.116503 0 0)
WARNING: Resetting reneighboring criteria during minimization (../min.cpp:168)
Ewald initialization ...
  G vector (1/distance) = 0.365055
  estimated absolute RMS force accuracy = 1.94166e-05
  estimated relative force accuracy = 1.34841e-06
  KSpace vectors: actual max1d max3d = 2079 10 4630
                  kxmax kymax kzmax  = 10 10 10
Memory usage per processor = 4.56197 Mbytes
Step Temp E_pair E_mol TotEng Press 
     338           10   -18273.851            0    -18272.55   -7321.4462 
     348           10   -18273.908            0   -18272.606   -7380.2436 
Loop time of 0.183077 on 12 procs for 10 steps with 1008 atoms

99.9% CPU use with 12 MPI tasks x no OpenMP threads

Minimization stats:
  Stopping criterion = linesearch alpha is zero
  Energy initial, next-to-last, final = 
        -18273.8511872     -18273.9076526     -18273.9076526
  Force two-norm initial, final = 1.22505 0.190768
  Force max component initial, final = 0.1269 0.014177
  Final line search alpha, max atom move = 2.38419e-07 3.38006e-09
  Iterations, force evaluations = 10 63

MPI task timing breakdown:
Section |  min time  |  avg time  |  max time  |%varavg| %total
---------------------------------------------------------------
Pair    | 0.062728   | 0.069426   | 0.072626   |   0.9 | 37.92
Kspace  | 0.1004     | 0.10292    | 0.10496    |   0.4 | 56.21
Neigh   | 0          | 0          | 0          |   0.0 |  0.00
Comm    | 0.006372   | 0.0097874  | 0.01542    |   2.3 |  5.35
Output  | 0          | 0          | 0          |   0.0 |  0.00
Modify  | 0          | 0          | 0          |   0.0 |  0.00
Other   |            | 0.0009478  |            |       |  0.52

Nlocal:    84 ave 88 max 77 min
Histogram: 1 0 0 1 0 2 3 2 0 3
Nghost:    2603.42 ave 2630 max 2582 min
Histogram: 1 5 0 0 0 2 0 2 0 2
Neighs:    18635.6 ave 19576 max 17013 min
Histogram: 1 0 0 1 1 1 4 1 1 2

Total # of neighbors = 223627
Ave neighs/atom = 221.852
Neighbor list builds = 0
Dangerous builds = 0
  triclinic box = (0 0 0) to (23.3007 23.3007 23.3007) with tilt (0 -0.116503 0)
WARNING: Resetting reneighboring criteria during minimization (../min.cpp:168)
Ewald initialization ...
  G vector (1/distance) = 0.365055
  estimated absolute RMS force accuracy = 1.94166e-05
  estimated relative force accuracy = 1.34841e-06
  KSpace vectors: actual max1d max3d = 2079 10 4630
                  kxmax kymax kzmax  = 10 10 10
Memory usage per processor = 4.56197 Mbytes
Step Temp E_pair E_mol TotEng Press 
     348           10   -18273.677            0   -18272.376   -7231.8507 
     350           10   -18273.711            0   -18272.409   -7271.3348 
     362           10   -18273.732            0   -18272.431   -7276.9354 
Loop time of 0.200744 on 12 procs for 14 steps with 1008 atoms

99.8% CPU use with 12 MPI tasks x no OpenMP threads

Minimization stats:
  Stopping criterion = linesearch alpha is zero
  Energy initial, next-to-last, final = 
        -18273.6773145     -18273.7324075     -18273.7324075
  Force two-norm initial, final = 1.23245 0.120449
  Force max component initial, final = 0.107436 0.0164384
  Final line search alpha, max atom move = 4.76837e-07 7.83844e-09
  Iterations, force evaluations = 14 69

MPI task timing breakdown:
Section |  min time  |  avg time  |  max time  |%varavg| %total
---------------------------------------------------------------
Pair    | 0.069549   | 0.07628    | 0.079653   |   1.0 | 38.00
Kspace  | 0.11095    | 0.11255    | 0.11421    |   0.3 | 56.07
Neigh   | 0          | 0          | 0          |   0.0 |  0.00
Comm    | 0.0073879  | 0.010728   | 0.016517   |   2.3 |  5.34
Output  | 2.2173e-05 | 2.3067e-05 | 2.718e-05  |   0.0 |  0.01
Modify  | 0          | 0          | 0          |   0.0 |  0.00
Other   |            | 0.001165   |            |       |  0.58

Nlocal:    84 ave 88 max 77 min
Histogram: 1 0 0 1 0 2 3 2 0 3
Nghost:    2603.42 ave 2630 max 2582 min
Histogram: 1 5 0 0 0 2 0 2 0 2
Neighs:    18636.2 ave 19586 max 17018 min
Histogram: 1 0 0 1 1 1 4 1 1 2

Total # of neighbors = 223635
Ave neighs/atom = 221.86
Neighbor list builds = 0
Dangerous builds = 0
  triclinic box = (0 0 0) to (23.3007 23.3007 23.3007) with tilt (0 -0.077661 0)
WARNING: Resetting reneighboring criteria during minimization (../min.cpp:168)
Ewald initialization ...
  G vector (1/distance) = 0.365055
  estimated absolute RMS force accuracy = 1.94166e-05
  estimated relative force accuracy = 1.34841e-06
  KSpace vectors: actual max1d max3d = 2081 10 4630
                  kxmax kymax kzmax  = 10 10 10
Memory usage per processor = 4.56197 Mbytes
Step Temp E_pair E_mol TotEng Press 
     362           10    -18273.77            0   -18272.469   -7264.2246 
     372           10   -18273.794            0   -18272.493    -7298.384 
Loop time of 0.18259 on 12 procs for 10 steps with 1008 atoms

100.2% CPU use with 12 MPI tasks x no OpenMP threads

Minimization stats:
  Stopping criterion = linesearch alpha is zero
  Energy initial, next-to-last, final = 
         -18273.770291     -18273.7942306     -18273.7942306
  Force two-norm initial, final = 0.82169 0.125985
  Force max component initial, final = 0.071754 0.0116456
  Final line search alpha, max atom move = 4.76837e-07 5.55305e-09
  Iterations, force evaluations = 10 61

MPI task timing breakdown:
Section |  min time  |  avg time  |  max time  |%varavg| %total
---------------------------------------------------------------
Pair    | 0.062268   | 0.068633   | 0.071898   |   0.9 | 37.59
Kspace  | 0.10079    | 0.10275    | 0.10483    |   0.4 | 56.27
Neigh   | 0          | 0          | 0          |   0.0 |  0.00
Comm    | 0.0070162  | 0.010234   | 0.015625   |   2.2 |  5.60
Output  | 0          | 0          | 0          |   0.0 |  0.00
Modify  | 0          | 0          | 0          |   0.0 |  0.00
Other   |            | 0.0009769  |            |       |  0.54

Nlocal:    84 ave 88 max 77 min
Histogram: 1 0 0 1 0 2 3 2 0 3
Nghost:    2603.42 ave 2630 max 2582 min
Histogram: 1 5 0 0 0 2 0 2 0 2
Neighs:    18634.9 ave 19586 max 17014 min
Histogram: 1 0 0 1 1 1 4 1 1 2

Total # of neighbors = 223619
Ave neighs/atom = 221.844
Neighbor list builds = 0
Dangerous builds = 0
  triclinic box = (0 0 0) to (23.3007 23.3007 23.3007) with tilt (0 -0.038842 0)
WARNING: Resetting reneighboring criteria during minimization (../min.cpp:168)
Ewald initialization ...
  G vector (1/distance) = 0.365055
  estimated absolute RMS force accuracy = 1.94166e-05
  estimated relative force accuracy = 1.34841e-06
  KSpace vectors: actual max1d max3d = 2082 10 4630
                  kxmax kymax kzmax  = 10 10 10
Memory usage per processor = 4.56197 Mbytes
Step Temp E_pair E_mol TotEng Press 
     372           10   -18273.836            0   -18272.534   -7291.7244 
     379           10   -18273.842            0    -18272.54   -7293.9507 
Loop time of 0.239349 on 12 procs for 7 steps with 1008 atoms

99.6% CPU use with 12 MPI tasks x no OpenMP threads

Minimization stats:
  Stopping criterion = linesearch alpha is zero
  Energy initial, next-to-last, final = 
        -18273.8357499     -18273.8416064     -18273.8416064
  Force two-norm initial, final = 0.411065 0.0921247
  Force max component initial, final = 0.0359427 0.00940179
  Final line search alpha, max atom move = 9.53674e-07 8.96625e-09
  Iterations, force evaluations = 7 81

MPI task timing breakdown:
Section |  min time  |  avg time  |  max time  |%varavg| %total
---------------------------------------------------------------
Pair    | 0.082368   | 0.090611   | 0.095382   |   1.1 | 37.86
Kspace  | 0.13304    | 0.13457    | 0.13741    |   0.3 | 56.22
Neigh   | 0          | 0          | 0          |   0.0 |  0.00
Comm    | 0.0083764  | 0.013005   | 0.020454   |   2.6 |  5.43
Output  | 0          | 0          | 0          |   0.0 |  0.00
Modify  | 0          | 0          | 0          |   0.0 |  0.00
Other   |            | 0.001163   |            |       |  0.49

Nlocal:    84 ave 88 max 77 min
Histogram: 1 0 0 1 0 2 3 2 0 3
Nghost:    2603.42 ave 2630 max 2582 min
Histogram: 1 5 0 0 0 2 0 2 0 2
Neighs:    18636.4 ave 19580 max 17018 min
Histogram: 1 0 0 1 1 1 4 1 1 2

Total # of neighbors = 223637
Ave neighs/atom = 221.862
Neighbor list builds = 0
Dangerous builds = 0
  triclinic box = (0 0 0) to (23.3007 23.3007 23.3007) with tilt (0 0 0)
WARNING: Resetting reneighboring criteria during minimization (../min.cpp:168)
Ewald initialization ...
  G vector (1/distance) = 0.365055
  estimated absolute RMS force accuracy = 1.94166e-05
  estimated relative force accuracy = 1.34841e-06
  KSpace vectors: actual max1d max3d = 2084 10 4630
                  kxmax kymax kzmax  = 10 10 10
Memory usage per processor = 4.56197 Mbytes
Step Temp E_pair E_mol TotEng Press 
     379           10   -18273.873            0   -18272.571   -7314.0288 
     382           10   -18273.873            0   -18272.571   -7309.9301 
Loop time of 0.0744366 on 12 procs for 3 steps with 1008 atoms

100.7% CPU use with 12 MPI tasks x no OpenMP threads

Minimization stats:
  Stopping criterion = linesearch alpha is zero
  Energy initial, next-to-last, final = 
        -18273.8726745      -18273.872703      -18273.872703
  Force two-norm initial, final = 0.00473893 0.00274546
  Force max component initial, final = 0.000360574 0.000458585
  Final line search alpha, max atom move = 0.000976562 4.47837e-07
  Iterations, force evaluations = 3 25

MPI task timing breakdown:
Section |  min time  |  avg time  |  max time  |%varavg| %total
---------------------------------------------------------------
Pair    | 0.025341   | 0.028246   | 0.029589   |   0.7 | 37.95
Kspace  | 0.041179   | 0.041807   | 0.042567   |   0.2 | 56.17
Neigh   | 0          | 0          | 0          |   0.0 |  0.00
Comm    | 0.0024414  | 0.0040033  | 0.0064249  |   1.5 |  5.38
Output  | 0          | 0          | 0          |   0.0 |  0.00
Modify  | 0          | 0          | 0          |   0.0 |  0.00
Other   |            | 0.0003795  |            |       |  0.51

Nlocal:    84 ave 88 max 77 min
Histogram: 1 0 0 1 0 2 3 2 0 3
Nghost:    2603.42 ave 2630 max 2582 min
Histogram: 1 5 0 0 0 2 0 2 0 2
Neighs:    18635.7 ave 19575 max 17017 min
Histogram: 1 0 0 1 1 1 4 1 1 2

Total # of neighbors = 223628
Ave neighs/atom = 221.853
Neighbor list builds = 0
Dangerous builds = 0
  triclinic box = (0 0 0) to (23.3007 23.3007 23.3007) with tilt (0 0.038842 0)
WARNING: Resetting reneighboring criteria during minimization (../min.cpp:168)
Ewald initialization ...
  G vector (1/distance) = 0.365055
  estimated absolute RMS force accuracy = 1.94166e-05
  estimated relative force accuracy = 1.34841e-06
  KSpace vectors: actual max1d max3d = 2082 10 4630
                  kxmax kymax kzmax  = 10 10 10
Memory usage per processor = 4.56197 Mbytes
Step Temp E_pair E_mol TotEng Press 
     382           10    -18273.88            0   -18272.578   -7330.8054 
     389           10   -18273.886            0   -18272.584   -7316.6231 
Loop time of 0.154368 on 12 procs for 7 steps with 1008 atoms

99.9% CPU use with 12 MPI tasks x no OpenMP threads

Minimization stats:
  Stopping criterion = linesearch alpha is zero
  Energy initial, next-to-last, final = 
        -18273.8796573     -18273.8855538     -18273.8855538
  Force two-norm initial, final = 0.411087 0.0920756
  Force max component initial, final = 0.0362164 0.00920302
  Final line search alpha, max atom move = 9.53674e-07 8.77668e-09
  Iterations, force evaluations = 7 53

MPI task timing breakdown:
Section |  min time  |  avg time  |  max time  |%varavg| %total
---------------------------------------------------------------
Pair    | 0.053076   | 0.058454   | 0.061365   |   0.9 | 37.87
Kspace  | 0.08543    | 0.086725   | 0.087725   |   0.3 | 56.18
Neigh   | 0          | 0          | 0          |   0.0 |  0.00
Comm    | 0.0055153  | 0.0083872  | 0.013166   |   2.1 |  5.43
Output  | 0          | 0          | 0          |   0.0 |  0.00
Modify  | 0          | 0          | 0          |   0.0 |  0.00
Other   |            | 0.0008027  |            |       |  0.52

Nlocal:    84 ave 88 max 77 min
Histogram: 1 0 0 1 0 2 3 2 0 3
Nghost:    2603.42 ave 2630 max 2582 min
Histogram: 1 5 0 0 0 2 0 2 0 2
Neighs:    18634.3 ave 19568 max 17014 min
Histogram: 1 0 0 1 1 1 4 1 1 2

Total # of neighbors = 223612
Ave neighs/atom = 221.837
Neighbor list builds = 0
Dangerous builds = 0
  triclinic box = (0 0 0) to (23.3007 23.3007 23.3007) with tilt (0 0.077661 0)
WARNING: Resetting reneighboring criteria during minimization (../min.cpp:168)
Ewald initialization ...
  G vector (1/distance) = 0.365055
  estimated absolute RMS force accuracy = 1.94166e-05
  estimated relative force accuracy = 1.34841e-06
  KSpace vectors: actual max1d max3d = 2081 10 4630
                  kxmax kymax kzmax  = 10 10 10
Memory usage per processor = 4.56197 Mbytes
Step Temp E_pair E_mol TotEng Press 
     389           10   -18273.861            0   -18272.559   -7343.1727 
     398           10   -18273.884            0   -18272.583   -7308.7723 
Loop time of 0.292072 on 12 procs for 9 steps with 1008 atoms

99.9% CPU use with 12 MPI tasks x no OpenMP threads

Minimization stats:
  Stopping criterion = linesearch alpha is zero
  Energy initial, next-to-last, final = 
        -18273.8607333     -18273.8843384     -18273.8843384
  Force two-norm initial, final = 0.822123 0.128767
  Force max component initial, final = 0.0725164 0.0120436
  Final line search alpha, max atom move = 4.76837e-07 5.74284e-09
  Iterations, force evaluations = 9 99

MPI task timing breakdown:
Section |  min time  |  avg time  |  max time  |%varavg| %total
---------------------------------------------------------------
Pair    | 0.10096    | 0.11072    | 0.11587    |   1.1 | 37.91
Kspace  | 0.16101    | 0.16404    | 0.16691    |   0.4 | 56.16
Neigh   | 0          | 0          | 0          |   0.0 |  0.00
Comm    | 0.010968   | 0.015821   | 0.024192   |   2.7 |  5.42
Output  | 0          | 0          | 0          |   0.0 |  0.00
Modify  | 0          | 0          | 0          |   0.0 |  0.00
Other   |            | 0.001497   |            |       |  0.51

Nlocal:    84 ave 88 max 77 min
Histogram: 1 0 0 1 0 2 3 2 0 3
Nghost:    2603.42 ave 2630 max 2582 min
Histogram: 1 5 0 0 0 2 0 2 0 2
Neighs:    18634.3 ave 19564 max 17013 min
Histogram: 1 0 0 1 1 1 4 1 1 2

Total # of neighbors = 223612
Ave neighs/atom = 221.837
Neighbor list builds = 0
Dangerous builds = 0
  triclinic box = (0 0 0) to (23.3007 23.3007 23.3007) with tilt (0 0.116503 0)
WARNING: Resetting reneighboring criteria during minimization (../min.cpp:168)
Ewald initialization ...
  G vector (1/distance) = 0.365055
  estimated absolute RMS force accuracy = 1.94166e-05
  estimated relative force accuracy = 1.34841e-06
  KSpace vectors: actual max1d max3d = 2079 10 4630
                  kxmax kymax kzmax  = 10 10 10
Memory usage per processor = 4.56197 Mbytes
Step Temp E_pair E_mol TotEng Press 
     398           10   -18273.815            0   -18272.514   -7350.8847 
     400           10   -18273.851            0    -18272.55   -7326.4928 
     412           10   -18273.873            0   -18272.572   -7315.7206 
Loop time of 0.315677 on 12 procs for 14 steps with 1008 atoms

99.8% CPU use with 12 MPI tasks x no OpenMP threads

Minimization stats:
  Stopping criterion = linesearch alpha is zero
  Energy initial, next-to-last, final = 
        -18273.8152889     -18273.8733925     -18273.8733925
  Force two-norm initial, final = 1.23357 0.110615
  Force max component initial, final = 0.108994 0.011161
  Final line search alpha, max atom move = 4.76837e-07 5.322e-09
  Iterations, force evaluations = 14 107

MPI task timing breakdown:
Section |  min time  |  avg time  |  max time  |%varavg| %total
---------------------------------------------------------------
Pair    | 0.10829    | 0.1195     | 0.12503    |   1.3 | 37.86
Kspace  | 0.17301    | 0.17678    | 0.18056    |   0.5 | 56.00
Neigh   | 0          | 0          | 0          |   0.0 |  0.00
Comm    | 0.011633   | 0.017772   | 0.027569   |   3.0 |  5.63
Output  | 2.3127e-05 | 2.4736e-05 | 3.0994e-05 |   0.0 |  0.01
Modify  | 0          | 0          | 0          |   0.0 |  0.00
Other   |            | 0.001598   |            |       |  0.51

Nlocal:    84 ave 88 max 77 min
Histogram: 1 0 0 1 0 2 3 2 0 3
Nghost:    2603.42 ave 2630 max 2582 min
Histogram: 1 5 0 0 0 2 0 2 0 2
Neighs:    18633.8 ave 19569 max 17015 min
Histogram: 1 0 0 1 1 1 4 1 1 2

Total # of neighbors = 223606
Ave neighs/atom = 221.831
Neighbor list builds = 0
Dangerous builds = 0
  triclinic box = (0 0 0) to (23.3007 23.3007 23.3007) with tilt (0 0 -0.116503)
WARNING: Resetting reneighboring criteria during minimization (../min.cpp:168)
Ewald initialization ...
  G vector (1/distance) = 0.365055
  estimated absolute RMS force accuracy = 1.94166e-05
  estimated relative force accuracy = 1.34841e-06
  KSpace vectors: actual max1d max3d = 2079 10 4630
                  kxmax kymax kzmax  = 10 10 10
Memory usage per processor = 4.56197 Mbytes
Step Temp E_pair E_mol TotEng Press 
     412           10   -18273.829            0   -18272.527   -7310.3659 
     437           10   -18273.897            0   -18272.595   -7225.5674 
Loop time of 0.354761 on 12 procs for 25 steps with 1008 atoms

99.9% CPU use with 12 MPI tasks x no OpenMP threads

Minimization stats:
  Stopping criterion = linesearch alpha is zero
  Energy initial, next-to-last, final = 
        -18273.8288039     -18273.8970466     -18273.8970466
  Force two-norm initial, final = 1.24629 0.0492397
  Force max component initial, final = 0.122209 0.00454866
  Final line search alpha, max atom move = 3.8147e-06 1.73518e-08
  Iterations, force evaluations = 25 123

MPI task timing breakdown:
Section |  min time  |  avg time  |  max time  |%varavg| %total
---------------------------------------------------------------
Pair    | 0.12214    | 0.13465    | 0.14049    |   1.3 | 37.95
Kspace  | 0.19515    | 0.19882    | 0.20212    |   0.4 | 56.04
Neigh   | 0          | 0          | 0          |   0.0 |  0.00
Comm    | 0.012628   | 0.019152   | 0.030146   |   3.2 |  5.40
Output  | 0          | 0          | 0          |   0.0 |  0.00
Modify  | 0          | 0          | 0          |   0.0 |  0.00
Other   |            | 0.002142   |            |       |  0.60

Nlocal:    84 ave 88 max 77 min
Histogram: 1 0 0 1 0 2 3 2 0 3
Nghost:    2603.42 ave 2630 max 2582 min
Histogram: 1 5 0 0 0 2 0 2 0 2
Neighs:    18635.1 ave 19577 max 17012 min
Histogram: 1 0 0 1 1 1 4 1 1 2

Total # of neighbors = 223621
Ave neighs/atom = 221.846
Neighbor list builds = 0
Dangerous builds = 0
  triclinic box = (0 0 0) to (23.3007 23.3007 23.3007) with tilt (0 0 -0.077661)
WARNING: Resetting reneighboring criteria during minimization (../min.cpp:168)
Ewald initialization ...
  G vector (1/distance) = 0.365055
  estimated absolute RMS force accuracy = 1.94166e-05
  estimated relative force accuracy = 1.34841e-06
  KSpace vectors: actual max1d max3d = 2081 10 4630
                  kxmax kymax kzmax  = 10 10 10
Memory usage per processor = 4.56197 Mbytes
Step Temp E_pair E_mol TotEng Press 
     437           10    -18273.87            0   -18272.568   -7315.9695 
     450           10   -18273.899            0   -18272.598   -7241.1435 
     453           10     -18273.9            0   -18272.598    -7238.785 
Loop time of 0.21193 on 12 procs for 16 steps with 1008 atoms

100.0% CPU use with 12 MPI tasks x no OpenMP threads

Minimization stats:
  Stopping criterion = linesearch alpha is zero
  Energy initial, next-to-last, final = 
        -18273.8698405     -18273.9001015     -18273.9001015
  Force two-norm initial, final = 0.830821 0.0832662
  Force max component initial, final = 0.0814207 0.00800644
  Final line search alpha, max atom move = 9.53674e-07 7.63553e-09
  Iterations, force evaluations = 16 71

MPI task timing breakdown:
Section |  min time  |  avg time  |  max time  |%varavg| %total
---------------------------------------------------------------
Pair    | 0.072133   | 0.079785   | 0.08339    |   1.0 | 37.65
Kspace  | 0.11713    | 0.11908    | 0.12164    |   0.4 | 56.19
Neigh   | 0          | 0          | 0          |   0.0 |  0.00
Comm    | 0.008333   | 0.011828   | 0.017884   |   2.3 |  5.58
Output  | 2.408e-05  | 2.5133e-05 | 3.0994e-05 |   0.0 |  0.01
Modify  | 0          | 0          | 0          |   0.0 |  0.00
Other   |            | 0.001207   |            |       |  0.57

Nlocal:    84 ave 88 max 77 min
Histogram: 1 0 0 1 0 2 3 2 0 3
Nghost:    2603.42 ave 2630 max 2582 min
Histogram: 1 5 0 0 0 2 0 2 0 2
Neighs:    18633.5 ave 19576 max 17018 min
Histogram: 1 0 0 1 1 1 4 1 1 2

Total # of neighbors = 223602
Ave neighs/atom = 221.827
Neighbor list builds = 0
Dangerous builds = 0
  triclinic box = (0 0 0) to (23.3007 23.3007 23.3007) with tilt (0 0 -0.038842)
WARNING: Resetting reneighboring criteria during minimization (../min.cpp:168)
Ewald initialization ...
  G vector (1/distance) = 0.365055
  estimated absolute RMS force accuracy = 1.94166e-05
  estimated relative force accuracy = 1.34841e-06
[...]
        -18274.2322522     -18274.2378477     -18274.2378477
  Force two-norm initial, final = 0.413789 0.0906877
  Force max component initial, final = 0.0375019 0.0090588
  Final line search alpha, max atom move = 9.53674e-07 8.63915e-09
  Iterations, force evaluations = 7 53

MPI task timing breakdown:
Section |  min time  |  avg time  |  max time  |%varavg| %total
---------------------------------------------------------------
Pair    | 0.054565   | 0.059444   | 0.062797   |   0.9 | 37.55
Kspace  | 0.087509   | 0.088946   | 0.090595   |   0.3 | 56.19
Neigh   | 0          | 0          | 0          |   0.0 |  0.00
Comm    | 0.0059724  | 0.0089389  | 0.013349   |   2.1 |  5.65
Output  | 0          | 0          | 0          |   0.0 |  0.00
Modify  | 0          | 0          | 0          |   0.0 |  0.00
Other   |            | 0.0009775  |            |       |  0.62

Nlocal:    84 ave 88 max 78 min
Histogram: 1 0 1 0 2 0 2 1 3 2
Nghost:    2607.08 ave 2629 max 2580 min
Histogram: 2 2 1 0 1 0 0 0 2 4
Neighs:    18626.2 ave 19565 max 17238 min
Histogram: 1 0 1 1 1 0 3 2 2 1

Total # of neighbors = 223515
Ave neighs/atom = 221.741
Neighbor list builds = 0
Dangerous builds = 0
  triclinic box = (0 0 0) to (23.3007 23.3007 23.3007) with tilt (0 0.077661 0)
WARNING: Resetting reneighboring criteria during minimization (../min.cpp:168)
Ewald initialization ...
  G vector (1/distance) = 0.365055
  estimated absolute RMS force accuracy = 1.94166e-05
  estimated relative force accuracy = 1.34841e-06
  KSpace vectors: actual max1d max3d = 2081 10 4630
                  kxmax kymax kzmax  = 10 10 10
Memory usage per processor = 4.56197 Mbytes
Step Temp E_pair E_mol TotEng Press 
     910           10   -18274.205            0   -18272.904   -6611.2554 
     925           10   -18274.228            0   -18272.927   -6583.0736 
Loop time of 0.30493 on 12 procs for 15 steps with 1008 atoms

99.9% CPU use with 12 MPI tasks x no OpenMP threads

Minimization stats:
  Stopping criterion = linesearch alpha is zero
  Energy initial, next-to-last, final = 
         -18274.205261     -18274.2284809     -18274.2284809
  Force two-norm initial, final = 0.827403 0.0651573
  Force max component initial, final = 0.0750462 0.00427004
  Final line search alpha, max atom move = 1.90735e-06 8.14446e-09
  Iterations, force evaluations = 15 105

MPI task timing breakdown:
Section |  min time  |  avg time  |  max time  |%varavg| %total
---------------------------------------------------------------
Pair    | 0.10654    | 0.1155     | 0.12144    |   1.2 | 37.88
Kspace  | 0.16866    | 0.17149    | 0.17446    |   0.4 | 56.24
Neigh   | 0          | 0          | 0          |   0.0 |  0.00
Comm    | 0.011157   | 0.016399   | 0.024396   |   2.9 |  5.38
Output  | 0          | 0          | 0          |   0.0 |  0.00
Modify  | 0          | 0          | 0          |   0.0 |  0.00
Other   |            | 0.001538   |            |       |  0.50

Nlocal:    84 ave 88 max 78 min
Histogram: 1 0 1 0 2 0 2 1 3 2
Nghost:    2607.08 ave 2629 max 2580 min
Histogram: 2 2 1 0 1 0 0 0 2 4
Neighs:    18625.8 ave 19563 max 17235 min
Histogram: 1 0 1 1 1 0 3 2 2 1

Total # of neighbors = 223509
Ave neighs/atom = 221.735
Neighbor list builds = 0
Dangerous builds = 0
  triclinic box = (0 0 0) to (23.3007 23.3007 23.3007) with tilt (0 0.116503 0)
WARNING: Resetting reneighboring criteria during minimization (../min.cpp:168)
Ewald initialization ...
  G vector (1/distance) = 0.365055
  estimated absolute RMS force accuracy = 1.94166e-05
  estimated relative force accuracy = 1.34841e-06
  KSpace vectors: actual max1d max3d = 2079 10 4630
                  kxmax kymax kzmax  = 10 10 10
Memory usage per processor = 4.56197 Mbytes
Step Temp E_pair E_mol TotEng Press 
     925           10    -18274.15            0   -18272.848   -6618.8842 
     946           10   -18274.208            0   -18272.906   -6569.3052 
Loop time of 0.355144 on 12 procs for 21 steps with 1008 atoms

99.9% CPU use with 12 MPI tasks x no OpenMP threads

Minimization stats:
  Stopping criterion = linesearch alpha is zero
  Energy initial, next-to-last, final = 
        -18274.1501494     -18274.2079756     -18274.2079756
  Force two-norm initial, final = 1.24144 0.0698622
  Force max component initial, final = 0.112676 0.00760868
  Final line search alpha, max atom move = 1.90735e-06 1.45124e-08
  Iterations, force evaluations = 21 121

MPI task timing breakdown:
Section |  min time  |  avg time  |  max time  |%varavg| %total
---------------------------------------------------------------
Pair    | 0.12325    | 0.13405    | 0.14035    |   1.3 | 37.75
Kspace  | 0.19625    | 0.19969    | 0.20352    |   0.5 | 56.23
Neigh   | 0          | 0          | 0          |   0.0 |  0.00
Comm    | 0.014132   | 0.019548   | 0.028157   |   3.1 |  5.50
Output  | 0          | 0          | 0          |   0.0 |  0.00
Modify  | 0          | 0          | 0          |   0.0 |  0.00
Other   |            | 0.001856   |            |       |  0.52

Nlocal:    84 ave 88 max 78 min
Histogram: 1 0 1 0 2 0 2 1 3 2
Nghost:    2607.08 ave 2629 max 2580 min
Histogram: 2 2 1 0 1 0 0 0 2 4
Neighs:    18629 ave 19559 max 17238 min
Histogram: 1 0 1 1 1 0 3 2 2 1

Total # of neighbors = 223548
Ave neighs/atom = 221.774
Neighbor list builds = 0
Dangerous builds = 0
  triclinic box = (0 0 0) to (23.3007 23.3007 23.3007) with tilt (0 0 -0.116503)
WARNING: Resetting reneighboring criteria during minimization (../min.cpp:168)
Ewald initialization ...
  G vector (1/distance) = 0.365055
  estimated absolute RMS force accuracy = 1.94166e-05
  estimated relative force accuracy = 1.34841e-06
  KSpace vectors: actual max1d max3d = 2079 10 4630
                  kxmax kymax kzmax  = 10 10 10
Memory usage per processor = 4.56197 Mbytes
Step Temp E_pair E_mol TotEng Press 
     946           10   -18274.279            0   -18272.977   -6588.3824 
     950           10   -18274.325            0   -18273.023   -6464.8877 
     966           10   -18274.342            0   -18273.041   -6443.5737 
Loop time of 0.338268 on 12 procs for 20 steps with 1008 atoms

99.9% CPU use with 12 MPI tasks x no OpenMP threads

Minimization stats:
  Stopping criterion = linesearch alpha is zero
  Energy initial, next-to-last, final = 
        -18274.2785287      -18274.342452      -18274.342452
  Force two-norm initial, final = 1.2481 0.0929952
  Force max component initial, final = 0.118957 0.00754412
  Final line search alpha, max atom move = 9.53674e-07 7.19464e-09
  Iterations, force evaluations = 20 115

MPI task timing breakdown:
Section |  min time  |  avg time  |  max time  |%varavg| %total
---------------------------------------------------------------
Pair    | 0.11765    | 0.1279     | 0.13446    |   1.3 | 37.81
Kspace  | 0.18593    | 0.18957    | 0.19392    |   0.5 | 56.04
Neigh   | 0          | 0          | 0          |   0.0 |  0.00
Comm    | 0.013269   | 0.018957   | 0.027761   |   3.0 |  5.60
Output  | 2.5034e-05 | 2.6584e-05 | 3.4094e-05 |   0.0 |  0.01
Modify  | 0          | 0          | 0          |   0.0 |  0.00
Other   |            | 0.001814   |            |       |  0.54

Nlocal:    84 ave 88 max 78 min
Histogram: 1 0 1 0 2 0 2 1 3 2
Nghost:    2607.08 ave 2629 max 2580 min
Histogram: 2 2 1 0 1 0 0 0 2 4
Neighs:    18629.8 ave 19572 max 17239 min
Histogram: 1 0 1 1 1 0 3 2 2 1

Total # of neighbors = 223557
Ave neighs/atom = 221.783
Neighbor list builds = 0
Dangerous builds = 0
  triclinic box = (0 0 0) to (23.3007 23.3007 23.3007) with tilt (0 0 -0.077661)
WARNING: Resetting reneighboring criteria during minimization (../min.cpp:168)
Ewald initialization ...
  G vector (1/distance) = 0.365055
  estimated absolute RMS force accuracy = 1.94166e-05
  estimated relative force accuracy = 1.34841e-06
  KSpace vectors: actual max1d max3d = 2081 10 4630
                  kxmax kymax kzmax  = 10 10 10
Memory usage per processor = 4.56197 Mbytes
Step Temp E_pair E_mol TotEng Press 
     966           10   -18274.289            0   -18272.988   -6590.3102 
     986           10   -18274.319            0   -18273.018   -6487.4734 
Loop time of 0.259579 on 12 procs for 20 steps with 1008 atoms

99.8% CPU use with 12 MPI tasks x no OpenMP threads

Minimization stats:
  Stopping criterion = linesearch alpha is zero
  Energy initial, next-to-last, final = 
         -18274.289189     -18274.3192029     -18274.3192029
  Force two-norm initial, final = 0.832064 0.0624792
  Force max component initial, final = 0.0792791 0.00496844
  Final line search alpha, max atom move = 1.90735e-06 9.47656e-09
  Iterations, force evaluations = 20 89

MPI task timing breakdown:
Section |  min time  |  avg time  |  max time  |%varavg| %total
---------------------------------------------------------------
Pair    | 0.090472   | 0.098207   | 0.10307    |   1.1 | 37.83
Kspace  | 0.14341    | 0.14595    | 0.14889    |   0.4 | 56.23
Neigh   | 0          | 0          | 0          |   0.0 |  0.00
Comm    | 0.0098972  | 0.013991   | 0.020548   |   2.7 |  5.39
Output  | 0          | 0          | 0          |   0.0 |  0.00
Modify  | 0          | 0          | 0          |   0.0 |  0.00
Other   |            | 0.001429   |            |       |  0.55

Nlocal:    84 ave 88 max 78 min
Histogram: 1 0 1 0 2 0 2 1 3 2
Nghost:    2607.08 ave 2629 max 2580 min
Histogram: 2 2 1 0 1 0 0 0 2 4
Neighs:    18628.4 ave 19569 max 17242 min
Histogram: 1 0 1 1 1 0 3 2 2 1

Total # of neighbors = 223541
Ave neighs/atom = 221.767
Neighbor list builds = 0
Dangerous builds = 0
  triclinic box = (0 0 0) to (23.3007 23.3007 23.3007) with tilt (0 0 -0.038842)
WARNING: Resetting reneighboring criteria during minimization (../min.cpp:168)
Ewald initialization ...
  G vector (1/distance) = 0.365055
  estimated absolute RMS force accuracy = 1.94166e-05
  estimated relative force accuracy = 1.34841e-06
  KSpace vectors: actual max1d max3d = 2082 10 4630
                  kxmax kymax kzmax  = 10 10 10
Memory usage per processor = 4.56197 Mbytes
Step Temp E_pair E_mol TotEng Press 
     986           10   -18274.274            0   -18272.972   -6588.0397 
     992           10   -18274.279            0   -18272.977   -6535.8817 
Loop time of 0.156946 on 12 procs for 6 steps with 1008 atoms

100.0% CPU use with 12 MPI tasks x no OpenMP threads

Minimization stats:
  Stopping criterion = linesearch alpha is zero
  Energy initial, next-to-last, final = 
         -18274.274123     -18274.2790514     -18274.2790514
  Force two-norm initial, final = 0.416268 0.115089
  Force max component initial, final = 0.0396575 0.0128183
  Final line search alpha, max atom move = 4.76837e-07 6.11226e-09
  Iterations, force evaluations = 6 53

MPI task timing breakdown:
Section |  min time  |  avg time  |  max time  |%varavg| %total
---------------------------------------------------------------
Pair    | 0.054733   | 0.059254   | 0.061742   |   0.8 | 37.75
Kspace  | 0.086992   | 0.088195   | 0.090086   |   0.3 | 56.19
Neigh   | 0          | 0          | 0          |   0.0 |  0.00
Comm    | 0.0064323  | 0.0086768  | 0.012388   |   2.1 |  5.53
Output  | 0          | 0          | 0          |   0.0 |  0.00
Modify  | 0          | 0          | 0          |   0.0 |  0.00
Other   |            | 0.0008204  |            |       |  0.52

Nlocal:    84 ave 88 max 78 min
Histogram: 1 0 1 0 2 0 2 1 3 2
Nghost:    2607.08 ave 2629 max 2580 min
Histogram: 2 2 1 0 1 0 0 0 2 4
Neighs:    18628.3 ave 19566 max 17236 min
Histogram: 1 0 1 1 1 0 3 2 2 1

Total # of neighbors = 223540
Ave neighs/atom = 221.766
Neighbor list builds = 0
Dangerous builds = 0
  triclinic box = (0 0 0) to (23.3007 23.3007 23.3007) with tilt (0 0 0)
WARNING: Resetting reneighboring criteria during minimization (../min.cpp:168)
Ewald initialization ...
  G vector (1/distance) = 0.365055
  estimated absolute RMS force accuracy = 1.94166e-05
  estimated relative force accuracy = 1.34841e-06
  KSpace vectors: actual max1d max3d = 2084 10 4630
                  kxmax kymax kzmax  = 10 10 10
Memory usage per processor = 4.56197 Mbytes
Step Temp E_pair E_mol TotEng Press 
     992           10   -18274.233            0   -18272.931   -6581.3659 
     993           10   -18274.233            0   -18272.931   -6581.3659 
Loop time of 0.0713468 on 12 procs for 1 steps with 1008 atoms

100.1% CPU use with 12 MPI tasks x no OpenMP threads

Minimization stats:
  Stopping criterion = linesearch alpha is zero
  Energy initial, next-to-last, final = 
        -18274.2325223     -18274.2325223     -18274.2325223
  Force two-norm initial, final = 0.00473676 0.00473676
  Force max component initial, final = 0.000378838 0.000378838
  Final line search alpha, max atom move = 0.000488281 1.84979e-07
  Iterations, force evaluations = 1 23

MPI task timing breakdown:
Section |  min time  |  avg time  |  max time  |%varavg| %total
---------------------------------------------------------------
Pair    | 0.024337   | 0.026639   | 0.028352   |   0.6 | 37.34
Kspace  | 0.039118   | 0.040229   | 0.04137    |   0.3 | 56.38
Neigh   | 0          | 0          | 0          |   0.0 |  0.00
Comm    | 0.0030055  | 0.0041092  | 0.0058773  |   1.3 |  5.76
Output  | 0          | 0          | 0          |   0.0 |  0.00
Modify  | 0          | 0          | 0          |   0.0 |  0.00
Other   |            | 0.0003697  |            |       |  0.52

Nlocal:    84 ave 88 max 78 min
Histogram: 1 0 1 0 2 0 2 1 3 2
Nghost:    2607.08 ave 2629 max 2580 min
Histogram: 2 2 1 0 1 0 0 0 2 4
Neighs:    18629.4 ave 19569 max 17238 min
Histogram: 1 0 1 1 1 0 3 2 2 1

Total # of neighbors = 223553
Ave neighs/atom = 221.779
Neighbor list builds = 0
Dangerous builds = 0
  triclinic box = (0 0 0) to (23.3007 23.3007 23.3007) with tilt (0 0 0.038842)
WARNING: Resetting reneighboring criteria during minimization (../min.cpp:168)
Ewald initialization ...
  G vector (1/distance) = 0.365055
  estimated absolute RMS force accuracy = 1.94166e-05
  estimated relative force accuracy = 1.34841e-06
  KSpace vectors: actual max1d max3d = 2082 10 4630
                  kxmax kymax kzmax  = 10 10 10
Memory usage per processor = 4.56197 Mbytes
Step Temp E_pair E_mol TotEng Press 
     993           10   -18274.162            0   -18272.861   -6569.6297 
     999           10   -18274.168            0   -18272.867   -6610.1038 
Loop time of 0.262355 on 12 procs for 6 steps with 1008 atoms

99.7% CPU use with 12 MPI tasks x no OpenMP threads

Minimization stats:
  Stopping criterion = linesearch alpha is zero
  Energy initial, next-to-last, final = 
        -18274.1624784     -18274.1684235     -18274.1684235
  Force two-norm initial, final = 0.415965 0.11568
  Force max component initial, final = 0.0395486 0.0130684
  Final line search alpha, max atom move = 4.76837e-07 6.23149e-09
  Iterations, force evaluations = 6 89

MPI task timing breakdown:
Section |  min time  |  avg time  |  max time  |%varavg| %total
---------------------------------------------------------------
Pair    | 0.091284   | 0.099005   | 0.10354    |   1.1 | 37.74
Kspace  | 0.14468    | 0.14714    | 0.1499     |   0.4 | 56.08
Neigh   | 0          | 0          | 0          |   0.0 |  0.00
Comm    | 0.010719   | 0.014912   | 0.021692   |   2.6 |  5.68
Output  | 0          | 0          | 0          |   0.0 |  0.00
Modify  | 0          | 0          | 0          |   0.0 |  0.00
Other   |            | 0.001301   |            |       |  0.50

Nlocal:    84 ave 88 max 78 min
Histogram: 1 0 1 0 2 0 2 1 3 2
Nghost:    2607.08 ave 2629 max 2580 min
Histogram: 2 2 1 0 1 0 0 0 2 4
Neighs:    18629.4 ave 19571 max 17233 min
Histogram: 1 0 1 1 1 0 3 2 2 1

Total # of neighbors = 223553
Ave neighs/atom = 221.779
Neighbor list builds = 0
Dangerous builds = 0
  triclinic box = (0 0 0) to (23.3007 23.3007 23.3007) with tilt (0 0 0.077661)
WARNING: Resetting reneighboring criteria during minimization (../min.cpp:168)
Ewald initialization ...
  G vector (1/distance) = 0.365055
  estimated absolute RMS force accuracy = 1.94166e-05
  estimated relative force accuracy = 1.34841e-06
  KSpace vectors: actual max1d max3d = 2081 10 4630
                  kxmax kymax kzmax  = 10 10 10
Memory usage per processor = 4.56197 Mbytes
Step Temp E_pair E_mol TotEng Press 
     999           10   -18274.064            0   -18272.762   -6552.9892 
    1000           10   -18274.074            0   -18272.773   -6570.2549 
    1009           10   -18274.091            0   -18272.789   -6657.4944 
Loop time of 0.175595 on 12 procs for 10 steps with 1008 atoms

99.8% CPU use with 12 MPI tasks x no OpenMP threads

Minimization stats:
  Stopping criterion = linesearch alpha is zero
  Energy initial, next-to-last, final = 
        -18274.0638848     -18274.0906621     -18274.0906621
  Force two-norm initial, final = 0.831876 0.15189
  Force max component initial, final = 0.0790932 0.0160746
  Final line search alpha, max atom move = 4.76837e-07 7.66497e-09
  Iterations, force evaluations = 10 61

MPI task timing breakdown:
Section |  min time  |  avg time  |  max time  |%varavg| %total
---------------------------------------------------------------
Pair    | 0.061434   | 0.066956   | 0.069881   |   0.9 | 38.13
Kspace  | 0.096625   | 0.09856    | 0.1007     |   0.4 | 56.13
Neigh   | 0          | 0          | 0          |   0.0 |  0.00
Comm    | 0.0061893  | 0.0091334  | 0.013658   |   2.3 |  5.20
Output  | 1.9073e-05 | 1.9809e-05 | 2.3127e-05 |   0.0 |  0.01
Modify  | 0          | 0          | 0          |   0.0 |  0.00
Other   |            | 0.0009256  |            |       |  0.53

Nlocal:    84 ave 88 max 78 min
Histogram: 1 0 1 0 2 0 2 1 3 2
Nghost:    2607.08 ave 2629 max 2580 min
Histogram: 2 2 1 0 1 0 0 0 2 4
Neighs:    18627.7 ave 19573 max 17228 min
Histogram: 1 0 1 1 1 0 3 2 2 1

Total # of neighbors = 223532
Ave neighs/atom = 221.758
Neighbor list builds = 0
Dangerous builds = 0
  triclinic box = (0 0 0) to (23.3007 23.3007 23.3007) with tilt (0 0 0.116503)
WARNING: Resetting reneighboring criteria during minimization (../min.cpp:168)
Ewald initialization ...
  G vector (1/distance) = 0.365055
  estimated absolute RMS force accuracy = 1.94166e-05
  estimated relative force accuracy = 1.34841e-06
  KSpace vectors: actual max1d max3d = 2079 10 4630
                  kxmax kymax kzmax  = 10 10 10
Memory usage per processor = 4.56197 Mbytes
Step Temp E_pair E_mol TotEng Press 
    1009           10   -18273.942            0   -18272.641   -6532.7782 
    1027           10   -18274.004            0   -18272.703   -6698.5346 
Loop time of 0.223108 on 12 procs for 18 steps with 1008 atoms

99.9% CPU use with 12 MPI tasks x no OpenMP threads

Minimization stats:
  Stopping criterion = linesearch alpha is zero
  Energy initial, next-to-last, final = 
        -18273.9423363     -18274.0041798     -18274.0041798
  Force two-norm initial, final = 1.24814 0.120987
  Force max component initial, final = 0.118631 0.0177492
  Final line search alpha, max atom move = 4.76837e-07 8.4635e-09
  Iterations, force evaluations = 18 77

MPI task timing breakdown:
Section |  min time  |  avg time  |  max time  |%varavg| %total
---------------------------------------------------------------
Pair    | 0.077882   | 0.08458    | 0.089076   |   1.0 | 37.91
Kspace  | 0.12372    | 0.12571    | 0.12769    |   0.4 | 56.34
Neigh   | 0          | 0          | 0          |   0.0 |  0.00
Comm    | 0.0080187  | 0.011626   | 0.017231   |   2.5 |  5.21
Output  | 0          | 0          | 0          |   0.0 |  0.00
Modify  | 0          | 0          | 0          |   0.0 |  0.00
Other   |            | 0.001196   |            |       |  0.54

Nlocal:    84 ave 88 max 78 min
Histogram: 1 0 1 0 2 0 2 1 3 2
Nghost:    2607.08 ave 2629 max 2580 min
Histogram: 2 2 1 0 1 0 0 0 2 4
Neighs:    18627.8 ave 19571 max 17225 min
Histogram: 1 0 1 1 1 0 3 2 2 1

Total # of neighbors = 223533
Ave neighs/atom = 221.759
Neighbor list builds = 0
Dangerous builds = 0
Total wall time: 0:00:17
