ITEM: TIMESTEP
0
ITEM: NUMBER OF ATOMS
1008
ITEM: BOX BOUNDS xy xz yz pp pp pp
0.0 23.3006801605 0.0
0.0 23.3006801605 0.0
0.0 23.3006801605 0.0
ITEM: ATOMS id type x y z
1 1 4.067783832550049 -7.084561347961426 -8.017817497253418 
2 1 0.106701135635376 6.254870891571045 -1.379204750061035 
3 1 -10.976833343505859 5.573725700378418 -3.345884799957275 
4 1 -1.340361714363098 3.184808969497681 -1.395603895187378 
5 1 5.852858543395996 -11.594109535217285 -11.473829269409180 
6 1 0.067754507064819 -2.398293972015381 10.375162124633789 
7 1 8.049061775207520 0.185008779168129 -3.373743057250977 
8 1 -4.129113674163818 -1.178857803344727 -4.675446033477783 
9 1 -9.720575332641602 10.320355415344238 -1.643410444259644 
10 1 5.303338050842285 -0.233374640345573 -9.558481216430664 
11 1 9.638890266418457 2.100682497024536 7.023279666900635 
12 1 9.076959609985352 -2.770295858383179 4.450041770935059 
13 1 0.861409842967987 3.397929668426514 9.711205482482910 
14 1 -6.771545886993408 4.457586288452148 -1.350780606269836 
15 1 -5.365790843963623 -3.784377574920654 5.533943653106689 
16 1 2.968125343322754 -8.993906974792480 4.440790176391602 
17 1 -10.323287963867188 3.593584060668945 5.762679576873779 
18 1 -9.566155433654785 2.250122547149658 -2.360035181045532 
19 1 -0.718891441822052 -1.415104150772095 5.072305202484131 
20 1 -10.237461090087891 -2.609344959259033 8.243378639221191 
21 1 10.857663154602051 -5.657541751861572 5.245587825775146 
22 1 -0.003079116344452 -7.213238239288330 -3.376506328582764 
23 1 -5.795558452606201 -7.082768917083740 7.377432346343994 
24 1 7.714206218719482 4.584487438201904 9.096430778503418 
25 1 7.286278724670410 -2.683669090270996 9.273844718933105 
26 1 -5.534548282623291 6.775629043579102 7.018866539001465 
27 1 8.120899200439453 -10.795879364013672 2.380060434341431 
28 1 0.335425227880478 10.403714179992676 6.105675220489502 
29 1 -3.046864986419678 -10.976986885070801 -4.538849353790283 
30 1 -6.054889678955078 2.943933486938477 -7.551394462585449 
31 1 -1.402426719665527 5.146788597106934 -7.512263774871826 
32 1 -11.443440437316895 6.876808166503906 6.367240905761719 
33 1 4.594712257385254 6.145933151245117 1.227597832679749 
34 1 2.143553256988525 3.468114137649536 0.008765132166445 
35 1 0.425486296415329 -1.555740714073181 -5.442282676696777 
36 1 -10.578639984130859 -11.317219734191895 10.163186073303223 
37 1 11.546154022216797 -0.601507544517517 5.477768421173096 
38 1 -4.723455905914307 1.410374522209167 -1.471609234809875 
39 1 4.421743392944336 -4.070299625396729 -6.084566116333008 
40 1 -7.225519180297852 -4.634335517883301 2.475872039794922 
41 1 -3.403138875961304 -7.146808147430420 -5.123102664947510 
42 1 3.088151454925537 -10.241044998168945 -9.885480880737305 
43 1 -8.529253959655762 5.341912746429443 -9.105670928955078 
44 1 -2.260537624359131 -9.013909339904785 -1.683758139610291 
45 1 -8.387190818786621 10.808677673339844 7.618966102600098 
46 1 0.675403296947479 9.203729629516602 9.606102943420410 
47 1 7.304041385650635 -9.055800437927246 -4.443269252777100 
48 1 4.903954029083252 -8.977801322937012 8.857641220092773 
49 1 3.502217531204224 11.546004295349121 -5.820916652679443 
50 1 -10.787184715270996 -5.586781978607178 2.213339328765869 
51 1 -5.925438880920410 10.213238716125488 5.447508335113525 
52 1 -11.003586769104004 -0.537866950035095 -0.932942330837250 
53 1 -2.035778284072876 1.068076610565186 1.058650255203247 
54 1 -1.513888120651245 -0.683047235012054 -2.115465164184570 
55 1 3.672452926635742 -4.131988048553467 9.978867530822754 
56 1 2.952409505844116 8.310347557067871 -4.221987247467041 
57 1 6.806767463684082 -5.767241954803467 -10.464692115783691 
58 1 3.781608819961548 5.528550624847412 -1.934099316596985 
59 1 3.834001302719116 9.366706848144531 -8.946476936340332 
60 1 0.558134734630585 5.443761825561523 2.865355730056763 
61 1 2.405362844467163 0.999332726001740 -7.219610214233398 
62 1 8.508007049560547 7.596659660339355 -6.016207695007324 
63 1 -1.786930322647095 -5.558135509490967 -0.262276411056519 
64 1 -4.976388454437256 -6.771718978881836 1.124455928802490 
65 1 8.828144073486328 6.178205490112305 -2.702545166015625 
66 1 0.309829592704773 -3.345049142837524 -8.751085281372070 
67 1 5.433359146118164 -3.753827571868896 1.841455459594727 
68 1 9.256527900695801 7.225515842437744 11.318158149719238 
69 1 -11.496420860290527 -9.657596588134766 -2.358267784118652 
70 1 -6.844480514526367 -3.053204298019409 -6.424836635589600 
71 1 -1.049352645874023 9.613417625427246 -6.113568782806396 
72 1 3.782405138015747 1.171302795410156 2.549622774124146 
73 1 -7.507158756256104 0.430280834436417 -5.038506984710693 
74 1 -3.497756481170654 4.588523387908936 -10.311723709106445 
75 1 -10.534129142761230 -6.069495201110840 10.911089897155762 
76 1 3.582972288131714 10.628584861755371 3.722885131835938 
77 1 3.257684469223022 10.177868843078613 -1.507324099540710 
78 1 10.797937393188477 11.248132705688477 0.216186895966530 
79 1 3.973363161087036 -9.737735748291016 -2.872140407562256 
80 1 10.086969375610352 0.611589670181274 -9.823434829711914 
81 1 -9.806286811828613 0.739296793937683 8.358906745910645 
82 1 1.748204231262207 -6.398103713989258 0.121423028409481 
83 1 -2.626363992691040 9.623729705810547 0.195189431309700 
84 1 1.960914134979248 -0.606792569160461 -10.364733695983887 
85 1 -7.714978694915771 -3.142848968505859 10.833410263061523 
86 1 -8.514762878417969 9.477976799011230 1.794741392135620 
87 1 7.690610885620117 8.213916778564453 8.115985870361328 
88 1 -2.760424613952637 1.783667564392090 -6.537467479705811 
89 1 -2.831005573272705 5.378300189971924 4.764813899993896 
90 1 9.608375549316406 -4.254683494567871 -8.452652931213379 
91 1 3.349124908447266 -11.608740806579590 6.971319675445557 
92 1 3.648170709609985 1.665644526481628 -3.099824190139771 
93 1 -7.168958663940430 8.112295150756836 10.117360115051270 
94 1 -8.448250770568848 7.623673915863037 5.014980316162109 
95 1 -9.042271614074707 10.186741828918457 -10.421093940734863 
96 1 5.697684764862061 4.839819431304932 -9.832591056823730 
97 1 -2.146940231323242 -9.453248023986816 9.693534851074219 
98 1 10.530873298645020 -7.408127307891846 -0.025182345882058 
99 1 0.226616710424423 -7.177134037017822 9.970838546752930 
100 1 -7.084800720214844 8.119107246398926 -2.117242336273193 
101 1 4.134309768676758 -0.973762273788452 5.597827911376953 
102 1 6.973197937011719 1.568389534950256 11.128931999206543 
103 1 0.534080505371094 -9.769604682922363 7.193187713623047 
104 1 -10.140404701232910 0.670095026493073 -11.428305625915527 
105 1 7.220248222351074 11.157810211181641 -5.582223892211914 
106 1 -9.644186019897461 -1.844568252563477 -4.227986812591553 
107 1 -5.086693763732910 -4.987817287445068 10.222787857055664 
108 1 -1.604478478431702 6.225168228149414 -4.425099849700928 
109 1 -10.608179092407227 8.049009323120117 -8.153396606445312 
110 1 -1.301850676536560 6.440273761749268 10.706379890441895 
111 1 -1.830869555473328 7.818423748016357 -9.331406593322754 
112 1 7.542973518371582 -7.522698879241943 3.960117340087891 
113 1 11.190173149108887 0.594670951366425 -4.692457199096680 
114 1 11.365814208984375 9.059492111206055 -4.478185176849365 
115 1 6.784060478210449 3.631778478622437 -3.163950681686401 
116 1 -7.961892127990723 -7.773402214050293 4.297657966613770 
117 1 -2.273956775665283 -3.671298980712891 7.671713352203369 
118 1 -2.907865285873413 8.955392837524414 6.373600006103516 
119 1 3.511525392532349 -6.989769458770752 -11.580234527587891 
120 1 11.118144035339355 9.616136550903320 8.685356140136719 
121 1 9.815443038940430 4.071944236755371 -5.499131202697754 
122 1 -6.626492977142334 11.393926620483398 -4.006576538085938 
123 1 -11.633017539978027 4.025447845458984 8.912839889526367 
124 1 7.524149417877197 -11.473628997802734 8.690151214599609 
125 1 -6.998340129852295 0.527501881122589 11.016969680786133 
126 1 -9.749802589416504 1.473302602767944 2.982154846191406 
127 1 -10.771263122558594 2.704396963119507 -7.665524005889893 
128 1 -3.086658954620361 0.130506798624992 7.538707733154297 
129 1 2.707767486572266 -6.213837146759033 7.118969440460205 
130 1 -3.868028640747070 -4.519691467285156 -7.764485359191895 
131 1 -3.639450073242188 6.452866077423096 -1.496361970901489 
132 1 4.857743740081787 -7.706324100494385 1.346444368362427 
133 1 -5.573472499847412 7.593018531799316 -9.651967048645020 
134 1 -7.938635349273682 0.282832652330399 -8.593732833862305 
135 1 7.309705257415771 9.523266792297363 -8.932424545288086 
136 1 -8.301074028015137 -8.799837112426758 8.953348159790039 
137 1 -1.591397404670715 -4.015362739562988 -3.690114498138428 
138 1 -7.194995403289795 -0.823009312152863 1.519928455352783 
139 1 -5.192188262939453 -10.724167823791504 8.152380943298340 
140 1 -4.234708786010742 3.683629512786865 -3.720982551574707 
141 1 8.467251777648926 -9.047165870666504 -10.621433258056641 
142 1 1.515136122703552 8.481208801269531 1.302662611007690 
143 1 0.295575022697449 1.938251972198486 3.926813602447510 
144 1 8.752498626708984 11.034015655517578 -2.387272119522095 
145 1 7.295360565185547 -9.172759056091309 -0.839360117912292 
146 1 -11.470606803894043 -2.672615528106689 -11.061373710632324 
147 1 -1.847461462020874 1.155825257301331 10.458306312561035 
148 1 5.730083942413330 0.944484531879425 -0.544212043285370 
149 1 -4.843493461608887 -5.031725406646729 -2.295464038848877 
150 1 6.517086982727051 -2.410026550292969 -1.481525182723999 
151 1 9.542400360107422 10.879444122314453 -11.428679466247559 
152 1 0.933577656745911 -2.965111255645752 -1.050171852111816 
153 1 -1.144532918930054 -2.628841876983643 1.915380835533142 
154 1 5.169105529785156 6.998041152954102 -6.860239982604980 
155 1 9.375945091247559 -1.651196479797363 0.777342915534973 
156 1 -6.386818885803223 2.891075611114502 1.677238583564758 
157 1 5.867537021636963 1.860449790954590 7.474647998809814 
158 1 10.080578804016113 -0.368352025747299 9.854764938354492 
159 1 -7.596052169799805 6.009634494781494 1.916079044342041 
160 1 -3.683095455169678 4.370285511016846 9.333584785461426 
161 1 -6.586867809295654 0.731137692928314 4.816987991333008 
162 1 -3.633489608764648 9.376448631286621 9.882792472839355 
163 1 11.569142341613770 -7.272228240966797 -9.166494369506836 
164 1 -1.918514490127563 -4.867460250854492 -11.196762084960938 
165 1 7.670204639434814 4.135092258453369 0.288677215576172 
166 1 -7.466909885406494 10.470420837402344 -7.173235416412354 
167 1 -5.629475593566895 -8.542849540710449 -2.950981855392456 
168 1 8.098486900329590 -2.434818506240845 -10.339515686035156 
169 1 0.974713325500488 -8.959777832031250 -6.901132583618164 
170 1 -0.289193719625473 9.747158050537109 -2.545226097106934 
171 1 6.926360607147217 -5.855329990386963 9.039832115173340 
172 1 -8.485960006713867 7.301129341125488 -5.587247848510742 
173 1 3.412322282791138 -2.248602867126465 -3.291178464889526 
174 1 3.043646812438965 -5.692255973815918 3.697107791900635 
175 1 -11.290781974792480 -9.316707611083984 6.979342460632324 
176 1 -4.948969841003418 6.180720329284668 -6.223232746124268 
177 1 8.979858398437500 -4.957851409912109 1.788172125816345 
178 1 4.925651073455811 4.076124191284180 4.463777542114258 
179 1 6.077713489532471 -10.149970054626465 -7.947134971618652 
180 1 -10.846457481384277 4.317415714263916 -11.161186218261719 
181 1 -10.931452751159668 -1.905077934265137 -7.816912174224854 
182 1 2.292626619338989 -9.919192314147949 0.295404106378555 
183 1 3.985692262649536 8.212780952453613 8.056976318359375 
184 1 -3.904559850692749 -8.882374763488770 -10.411066055297852 
185 1 -7.239861488342285 -7.174729347229004 -10.946633338928223 
186 1 0.314575135707855 1.624305248260498 -4.368599891662598 
187 1 -5.215087890625000 -1.962894558906555 -10.073827743530273 
188 1 9.386417388916016 8.293260574340820 0.314219027757645 
189 1 9.951106071472168 5.395920753479004 -8.549222946166992 
190 1 2.319754362106323 -10.548093795776367 10.252861976623535 
191 1 -6.664349079132080 4.349174499511719 11.230793952941895 
192 1 10.450477600097656 10.677591323852539 -7.311922550201416 
193 1 -0.503195643424988 11.586791038513184 2.072347402572632 
194 1 2.281999111175537 7.137631893157959 -11.143719673156738 
195 1 -8.966974258422852 -8.339108467102051 -4.375792026519775 
196 1 5.848071575164795 -4.481697082519531 5.587362766265869 
197 1 -8.456308364868164 -4.842653274536133 -3.369748592376709 
198 1 7.623448371887207 2.297779560089111 -7.928867340087891 
199 1 8.936637878417969 -1.140667557716370 -6.749282360076904 
200 1 10.812664985656738 -3.979914903640747 -1.301573514938354 
201 1 -9.710331916809082 -11.080831527709961 4.451723098754883 
202 1 3.890423536300659 -3.737984895706177 -9.712249755859375 
203 1 8.346358299255371 3.031948328018188 3.763061285018921 
204 1 -8.352001190185547 -7.024207592010498 -0.257189661264420 
205 1 -6.727406024932861 2.691471338272095 8.001777648925781 
206 1 10.399240493774414 5.719781875610352 2.206229448318481 
207 1 -6.475221157073975 -6.543925285339355 -7.416566371917725 
208 1 -2.445296049118042 -10.714079856872559 -8.000569343566895 
209 1 -0.024453863501549 -8.091022491455078 2.600818157196045 
210 1 5.393730163574219 -0.395134299993515 -5.901267528533936 
211 1 5.730337142944336 8.028510093688965 11.367874145507812 
212 1 -4.081096649169922 -1.055334448814392 3.231676578521729 
213 1 2.697993278503418 6.103468418121338 5.892068862915039 
214 1 6.186748027801514 -10.360859870910645 5.488985061645508 
215 1 -1.596671938896179 10.988807678222656 -11.306494712829590 
216 1 6.633044242858887 9.152053833007812 1.975133657455444 
217 1 -2.273617029190063 -1.088387131690979 -7.921052455902100 
218 1 4.929093837738037 3.323744535446167 -6.259758472442627 
219 1 7.053220748901367 -6.151096343994141 -6.644565582275391 
220 1 -6.527400970458984 -1.116295218467712 7.856446743011475 
221 1 -1.024992346763611 8.266587257385254 3.438204526901245 
222 1 -1.938079714775085 -7.321501731872559 6.724191188812256 
223 2 -5.165082454681396 -1.437626600265503 1.399500012397766 
224 2 -9.139432907104492 8.460124015808105 -1.506721377372742 
225 2 10.403199195861816 9.637345314025879 4.723722457885742 
226 2 6.466450214385986 2.701000928878784 -0.307411104440689 
227 2 -4.225533485412598 -8.465599060058594 0.991838216781616 
228 2 9.232375144958496 -2.733686923980713 -5.441109180450439 
229 2 9.182431221008301 -8.822791099548340 -5.246144771575928 
230 2 -8.179052352905273 7.698282241821289 0.973564863204956 
231 2 -6.153822422027588 9.583825111389160 -3.377365350723267 
232 2 10.943428993225098 11.010705947875977 10.183327674865723 
233 2 -5.922675132751465 2.755319356918335 -0.619566142559052 
234 2 6.633883953094482 -10.717340469360352 3.686142683029175 
235 2 7.291682720184326 -4.312451362609863 -2.232232809066772 
236 2 10.691287994384766 -5.914249897003174 -1.307574868202209 
237 2 9.152353286743164 10.233784675598145 -8.658609390258789 
238 2 -5.131037235260010 -10.564127922058105 -10.825233459472656 
239 2 11.014439582824707 -3.529299020767212 -7.317756175994873 
240 2 -3.629256486892700 8.240760803222656 -9.764242172241211 
241 2 7.464186191558838 7.700040340423584 10.281693458557129 
242 2 6.063086986541748 3.630682706832886 -8.073562622070312 
243 2 -9.634548187255859 -11.245957374572754 -9.702993392944336 
244 2 -2.699240922927856 8.583154678344727 4.406700611114502 
245 2 -1.111524939537048 9.599394798278809 -9.923689842224121 
246 2 4.290261268615723 -10.538304328918457 -7.087966918945312 
247 2 6.307794570922852 -5.896130084991455 -8.508354187011719 
248 2 9.320922851562500 10.066747665405273 -0.633831322193146 
249 2 -6.302416324615479 -8.985025405883789 8.116024017333984 
250 2 -6.879946708679199 -11.086653709411621 -8.008665084838867 
251 2 -3.943637847900391 10.558926582336426 -0.994812965393066 
252 2 -11.429704666137695 -10.000861167907715 11.419399261474609 
253 2 2.058292865753174 4.245195865631104 8.321842193603516 
254 2 -9.385213851928711 1.597784519195557 -8.432819366455078 
255 2 -11.414936065673828 7.495662212371826 -3.559637308120728 
256 2 -6.960358619689941 10.502304077148438 1.808317065238953 
257 2 10.885778427124023 0.744182407855988 -0.633381128311157 
258 2 10.493497848510742 2.679286003112793 -4.216112613677979 
259 2 -11.586833000183105 8.534671783447266 7.255869388580322 
260 2 11.235750198364258 10.932044029235840 -10.442959785461426 
261 2 4.609899997711182 -3.518081903457642 -7.916883468627930 
262 2 4.608881950378418 5.160002708435059 2.854214906692505 
263 2 -0.370513200759888 -8.590853691101074 -2.099788188934326 
264 2 -3.679684162139893 -5.267187118530273 11.542121887207031 
265 2 -3.733156442642212 0.913936674594879 0.049455177038908 
266 2 -3.783028364181519 -3.534371852874756 6.621907234191895 
267 2 -2.167615890502930 -10.532435417175293 -2.896108865737915 
268 2 -4.492349624633789 8.105466842651367 -5.342231273651123 
269 2 9.393674850463867 7.382627964019775 -1.340797662734985 
270 2 -9.802250862121582 10.742671012878418 11.284149169921875 
271 2 -7.876217365264893 -9.032072067260742 -10.223286628723145 
272 2 3.297694921493530 -4.617922306060791 -11.453691482543945 
273 2 -8.723421096801758 -6.003183841705322 -1.830911755561829 
274 2 10.208130836486816 -3.213069438934326 -10.116030693054199 
275 2 -8.997390747070312 -0.158144563436508 2.078622341156006 
276 2 5.490732192993164 -0.964927017688751 -0.705074965953827 
277 2 7.884256839752197 4.613545894622803 -1.643023252487183 
278 2 -3.331909894943237 -0.154581651091576 -6.222341537475586 
279 2 7.259057044982910 8.457180976867676 0.102435678243637 
280 2 -4.823891639709473 -11.131049156188965 1.545536518096924 
281 2 2.514580726623535 -9.611783027648926 -1.542559146881104 
282 2 -10.289015769958496 -3.748864889144897 -3.799626588821411 
283 2 -9.741466522216797 -8.253591537475586 7.570780277252197 
284 2 -8.305804252624512 1.331108093261719 4.216503620147705 
285 2 8.977631568908691 2.026572942733765 -10.570514678955078 
286 2 7.749354839324951 -2.626561164855957 11.148027420043945 
287 2 -2.238972187042236 -1.509038925170898 3.754988431930542 
288 2 9.335115432739258 2.825501680374146 -0.133470848202705 
289 2 -6.755609989166260 6.311086177825928 10.920917510986328 
290 2 -7.531826019287109 9.010655403137207 6.154037475585938 
291 2 11.251344680786133 6.808496952056885 -8.386099815368652 
292 2 2.025403499603271 6.163659095764160 -1.443545937538147 
293 2 -7.947722911834717 -3.496662855148315 -4.830308914184570 
294 2 -3.246450185775757 0.765994548797607 2.637465715408325 
295 2 -10.335352897644043 -6.079054355621338 -8.428053855895996 
296 2 -4.029217720031738 6.460886955261230 5.822468280792236 
297 2 3.501520156860352 -5.713700771331787 -9.145071983337402 
298 2 -1.054052352905273 11.189554214477539 -7.705883979797363 
299 2 -8.765811920166016 -10.242344856262207 -4.224824905395508 
300 2 -1.705637335777283 7.428453445434570 6.538344383239746 
301 2 1.384583353996277 -10.848880767822266 -6.349673271179199 
302 2 -8.268374443054199 1.844439983367920 -3.828513860702515 
303 2 -7.347470760345459 -6.136496067047119 -9.240601539611816 
304 2 -6.673126697540283 -4.035121917724609 9.525610923767090 
305 2 -1.852884888648987 0.914592266082764 -8.240150451660156 
306 2 -1.961848497390747 -9.792909622192383 -0.021846840158105 
307 2 -2.627845525741577 3.835108518600464 3.483146429061890 
308 2 2.695274114608765 -0.316888004541397 1.602031111717224 
309 2 2.018884181976318 -3.767460584640503 -2.623118877410889 
310 2 -9.268221855163574 -3.968268156051636 7.081764698028564 
311 2 7.569374561309814 -11.503553390502930 6.377269268035889 
312 2 -5.054237365722656 -2.351733922958374 -6.099483966827393 
313 2 5.856100559234619 8.014996528625488 7.110593318939209 
314 2 1.444764971733093 -6.199224948883057 -4.290413856506348 
315 2 3.901461839675903 4.137312889099121 -9.824945449829102 
316 2 0.049868591129780 9.087778091430664 4.779026508331299 
317 2 0.988847792148590 -11.050677299499512 1.141394734382629 
318 2 -7.965205192565918 -3.557030916213989 -7.862883567810059 
319 2 5.999965190887451 -10.757841110229492 9.763081550598145 
320 2 -11.098685264587402 -11.063753128051758 0.877872586250305 
321 2 -3.335929393768311 -4.724471569061279 -3.453036546707153 
322 2 1.671110272407532 7.415917396545410 -5.434654712677002 
323 2 -8.486067771911621 1.999117612838745 7.742879867553711 
324 2 10.214499473571777 -8.666070938110352 -9.376944541931152 
325 2 -4.684023380279541 -10.185847282409668 6.245879650115967 
326 2 11.407642364501953 -0.906902492046356 -9.415163993835449 
327 2 -10.677393913269043 -4.001698970794678 -0.860170006752014 
328 2 -2.048342466354370 3.078962087631226 0.417615175247192 
329 2 8.401815414428711 11.404276847839355 10.348466873168945 
330 2 7.154278278350830 10.010368347167969 8.479790687561035 
331 2 9.951761245727539 6.704193592071533 5.835034847259521 
332 2 -7.063152313232422 -3.917760372161865 4.346424579620361 
333 2 -2.438384532928467 -7.728836059570312 -6.700198173522949 
334 2 -6.424641609191895 1.542599320411682 -9.044329643249512 
335 2 3.073304414749146 6.158899307250977 -3.705531835556030 
336 2 5.945865154266357 -3.646520376205444 -0.082090459764004 
337 2 7.837499618530273 -10.944928169250488 -1.333047986030579 
338 2 -0.963112294673920 -6.000114917755127 10.876915931701660 
339 2 -9.584415435791016 0.811579585075378 -1.060121536254883 
340 2 -9.074832916259766 -6.291224956512451 -4.458515644073486 
341 2 7.258532524108887 9.863424301147461 -2.572395324707031 
342 2 7.928480625152588 3.110484838485718 10.401235580444336 
343 2 -11.135212898254395 5.277539730072021 5.336379528045654 
344 2 8.197262763977051 8.042346000671387 -7.902040958404541 
345 2 -4.927392005920410 4.598732948303223 -7.417448043823242 
346 2 -11.182396888732910 3.025843620300293 -1.217913269996643 
347 2 5.026829719543457 -2.698188781738281 5.416411876678467 
348 2 10.480925559997559 5.011136531829834 -2.451766729354858 
349 2 4.929191112518311 7.843604564666748 9.665519714355469 
350 2 9.551595687866211 -10.941563606262207 1.131458520889282 
351 2 -5.152892589569092 -7.584041595458984 -6.181416511535645 
352 2 5.318970203399658 2.590702772140503 -11.625056266784668 
353 2 -6.459458827972412 11.587696075439453 4.267763137817383 
354 2 1.190363645553589 -4.842803478240967 6.372423648834229 
355 2 3.505610942840576 -10.558100700378418 8.705178260803223 
356 2 2.452324628829956 -5.841288089752197 1.831695556640625 
357 2 3.748971223831177 -2.295773506164551 10.331621170043945 
358 2 1.981099486351013 -1.844197630882263 -4.441347599029541 
359 2 -4.177703380584717 -9.059626579284668 -1.847974061965942 
360 2 9.862439155578613 2.197761535644531 2.990340232849121 
361 2 -11.537286758422852 -5.939671516418457 7.067738533020020 
362 2 3.261171579360962 -11.598791122436523 -0.083460718393326 
363 2 8.784243583679199 -2.382195949554443 -8.249588012695312 
364 2 -8.486742973327637 -3.742257595062256 -10.900843620300293 
365 2 -9.303983688354492 6.770258903503418 6.687055587768555 
366 2 -4.496180057525635 11.288988113403320 -3.889313697814941 
367 2 -7.918212413787842 4.406140804290771 -10.730679512023926 
368 2 -0.880301773548126 -5.397050857543945 -2.159906387329102 
369 2 0.187399730086327 -7.416020393371582 -9.510666847229004 
370 2 -2.300252914428711 8.706161499023438 -7.577048301696777 
371 2 -8.253928184509277 -6.063624382019043 -6.836697101593018 
372 2 -4.367988109588623 -7.261514663696289 3.293973922729492 
373 2 -2.588986635208130 -1.780003309249878 8.268112182617188 
374 2 11.220524787902832 5.201295375823975 -4.888119220733643 
375 2 -1.532449603080750 -3.328726053237915 10.912877082824707 
376 2 -0.217562347650528 -6.426331520080566 0.569533646106720 
377 2 4.569802761077881 -2.155192613601685 -5.434796810150146 
378 2 10.189776420593262 -3.757618188858032 -3.109856367111206 
379 2 6.863010406494141 -9.916365623474121 -11.232342720031738 
380 2 -11.513161659240723 -8.149104118347168 5.504325866699219 
381 2 -6.828338623046875 4.479578495025635 3.027632951736450 
382 2 10.579924583435059 9.755023002624512 1.563580393791199 
383 2 -5.667145252227783 -0.163849472999573 -1.647381901741028 
384 2 -0.564764797687531 -8.725075721740723 11.044363021850586 
385 2 -10.302068710327148 8.504295349121094 -10.063343048095703 
386 2 -7.309091091156006 4.412343502044678 -3.148241519927979 
387 2 -4.995476245880127 3.117625236511230 8.584158897399902 
388 2 7.076570034027100 6.982807159423828 -2.639313459396362 
389 2 -7.901426792144775 7.756678581237793 -3.826792478561401 
390 2 4.064533710479736 10.162147521972656 7.756756782531738 
391 2 -11.166673660278320 -0.630333781242371 9.057027816772461 
392 2 1.894598245620728 5.373540878295898 -7.023509502410889 
393 2 -7.488727092742920 -1.293455243110657 -6.179075241088867 
394 2 4.790189743041992 -0.027181446552277 3.879040718078613 
395 2 -1.027881979942322 5.361469268798828 1.661603689193726 
396 2 10.938116073608398 -1.904225707054138 4.066953659057617 
397 2 -6.595016479492188 3.217059135437012 -5.723208904266357 
398 2 -1.035602331161499 -1.071274518966675 -6.486671447753906 
399 2 -3.687181949615479 -9.615658760070801 8.640480041503906 
400 2 -0.497847229242325 6.935216903686523 -8.087340354919434 
401 2 9.825851440429688 -4.502024173736572 3.663182258605957 
402 2 -11.003704071044922 -4.498664855957031 4.907873153686523 
403 2 -6.520653247833252 -5.088631153106689 -3.188640594482422 
404 2 3.646841526031494 -3.112612009048462 1.680266857147217 
405 2 -8.079811096191406 -4.963277816772461 0.564596652984619 
406 2 2.984633207321167 0.728795468807220 6.184236526489258 
407 2 5.674751758575439 -0.080896869301796 6.597253322601318 
408 2 -10.106561660766602 -6.552096843719482 0.681006729602814 
409 2 5.201558589935303 -5.786797523498535 1.144436717033386 
410 2 5.598414421081543 -4.145562171936035 -10.541173934936523 
411 2 0.857269763946533 -2.327260732650757 0.974915385246277 
412 2 -0.985035181045532 -9.868111610412598 2.413561344146729 
413 2 -4.976749420166016 7.383270740509033 -7.737642288208008 
414 2 -7.582450866699219 -1.504948019981384 -0.288385748863220 
415 2 3.929335594177246 -5.332523345947266 5.714653491973877 
416 2 9.578430175781250 -1.726773500442505 6.087203979492188 
417 2 8.376483917236328 -4.294298648834229 9.043002128601074 
418 2 -6.337575435638428 -10.516895294189453 -5.356880187988281 
419 2 -1.253637790679932 -0.779807507991791 10.493693351745605 
420 2 3.483708620071411 7.632126331329346 -7.870115756988525 
421 2 -10.561964988708496 0.671151101589203 6.588396549224854 
422 2 9.250072479248047 7.268258571624756 -4.250138759613037 
423 2 -1.871895313262939 4.575802803039551 6.252291202545166 
424 2 4.107222557067871 -9.621458053588867 1.238426208496094 
425 2 -0.061718676239252 -10.943653106689453 5.750730514526367 
426 2 -6.526793003082275 -0.525994002819061 3.330290079116821 
427 2 8.054520606994629 -2.028211593627930 -0.452960699796677 
428 2 -2.826735734939575 -1.635346293449402 -1.065726995468140 
429 2 3.905626773834229 2.847080469131470 -4.611428260803223 
430 2 1.548459053039551 -9.781466484069824 -8.749205589294434 
431 2 -5.348295688629150 8.629915237426758 9.689629554748535 
432 2 -11.172783851623535 -10.014046669006348 3.522559404373169 
433 2 -10.480655670166016 8.005825996398926 4.844799518585205 
434 2 6.145514011383057 -5.348677635192871 7.343443393707275 
435 2 -1.631805419921875 -6.175166606903076 5.122542381286621 
436 2 9.914493560791016 0.420286178588867 -2.953386306762695 
437 2 -11.060531616210938 -3.687004089355469 1.965779781341553 
438 2 -5.876774787902832 9.557145118713379 -8.678825378417969 
439 2 -3.514473438262939 -10.079286575317383 3.734181642532349 
440 2 -1.540620088577271 1.976140737533569 4.834756851196289 
441 2 -6.937873840332031 -10.865406036376953 0.067740693688393 
442 2 1.188059210777283 8.349288940429688 11.312238693237305 
443 2 -0.851771831512451 -9.493872642517090 -8.035846710205078 
444 2 -6.856750011444092 4.677645683288574 0.607793748378754 
445 2 -7.326901912689209 1.120519757270813 -6.835326194763184 
446 2 7.409838199615479 1.438777923583984 3.947587728500366 
447 2 -6.629722118377686 0.796394586563110 9.025690078735352 
448 2 0.282377183437347 3.841283798217773 3.790280342102051 
449 2 9.247490882873535 5.798083305358887 -6.727325439453125 
450 2 11.541436195373535 -6.518135547637939 3.603785276412964 
451 2 0.731499016284943 2.362246036529541 5.987031936645508 
452 2 2.758615255355835 -1.494413256645203 4.368937015533447 
453 2 2.572811126708984 -1.725369811058044 -1.419865369796753 
454 2 -4.547534942626953 3.372308492660522 1.642293572425842 
455 2 10.215183258056641 0.752971887588501 5.764987945556641 
456 2 -6.392632961273193 11.205553054809570 7.173204421997070 
457 2 3.885312795639038 8.232579231262207 -10.734792709350586 
458 2 -3.415958166122437 0.252007246017456 9.558025360107422 
459 2 5.909897327423096 4.970326900482178 9.555377006530762 
460 2 -2.006556510925293 -5.553975105285645 7.595151424407959 
461 2 6.923608303070068 8.347349166870117 -10.439096450805664 
462 2 11.431838989257812 5.809873580932617 8.053310394287109 
463 2 -1.156770944595337 6.322705268859863 4.116428375244141 
464 2 0.592683076858521 -1.434979915618896 6.566912174224854 
465 2 5.496323585510254 2.107917547225952 -2.606314897537231 
466 2 9.771235466003418 -4.570816040039062 6.339720249176025 
467 2 -4.826020717620850 4.390853881835938 10.867819786071777 
468 2 9.552301406860352 -10.659557342529297 -10.694170951843262 
469 2 -8.844644546508789 -9.389242172241211 5.048344612121582 
470 2 -8.929217338562012 -8.910124778747559 0.154931738972664 
471 2 2.530821084976196 -7.205087661743164 5.337249279022217 
472 2 0.413923144340515 0.535381078720093 -10.291505813598633 
473 2 6.719689369201660 -7.409756660461426 -5.210338592529297 
474 2 -2.366712093353271 -7.871490001678467 -9.775088310241699 
475 2 -0.938454091548920 10.022756576538086 -0.728658080101013 