ITEM: TIMESTEP
0
ITEM: NUMBER OF ATOMS
1008
ITEM: BOX BOUNDS xy xz yz pp pp pp
0.0 23.3006801605 0.0
0.0 23.3006801605 0.0
0.0 23.3006801605 0.0
ITEM: ATOMS id type x y z
1 1 4.081970691680908 -7.077326774597168 -8.022410392761230 
2 1 0.095675751566887 6.242008209228516 -1.373500704765320 
3 1 -10.975002288818359 5.583930969238281 -3.303649425506592 
4 1 -1.364701509475708 3.190610885620117 -1.391024231910706 
5 1 5.846118450164795 -11.603814125061035 -11.437653541564941 
6 1 0.077821493148804 -2.434028387069702 10.358384132385254 
7 1 8.051136970520020 0.192491561174393 -3.371246099472046 
8 1 -4.101031303405762 -1.180368542671204 -4.688169956207275 
9 1 -9.715484619140625 10.338311195373535 -1.619557499885559 
10 1 5.299456119537354 -0.228931307792664 -9.564192771911621 
11 1 9.672533988952637 2.083926677703857 6.990223407745361 
12 1 9.068858146667480 -2.774152040481567 4.441183090209961 
13 1 0.864290654659271 3.392533540725708 9.699663162231445 
14 1 -6.777268886566162 4.507511138916016 -1.294175982475281 
15 1 -5.330426692962646 -3.848704814910889 5.450397491455078 
16 1 2.995869159698486 -8.998388290405273 4.429653644561768 
17 1 -10.323886871337891 3.586534261703491 5.764277458190918 
18 1 -9.553696632385254 2.269464015960693 -2.334215402603149 
19 1 -0.692062199115753 -1.427216649055481 5.059622287750244 
20 1 -10.228095054626465 -2.666683912277222 8.239647865295410 
21 1 10.862778663635254 -5.641007900238037 5.211947441101074 
22 1 0.010319810360670 -7.206074714660645 -3.380252361297607 
23 1 -5.768511295318604 -7.132379531860352 7.341525077819824 
24 1 7.721437931060791 4.576472759246826 9.127629280090332 
25 1 7.267066478729248 -2.692401885986328 9.257558822631836 
26 1 -5.590126514434814 6.768365859985352 7.015299797058105 
27 1 8.131945610046387 -10.815599441528320 2.406654119491577 
28 1 0.462075918912888 10.309167861938477 6.131628036499023 
29 1 -3.036769628524780 -10.964320182800293 -4.527107238769531 
30 1 -6.067304134368896 2.937299251556396 -7.514478206634521 
31 1 -1.400254130363464 5.150955677032471 -7.488677501678467 
32 1 -11.515296936035156 6.808397293090820 6.378898620605469 
33 1 4.582636833190918 6.143530845642090 1.223271250724792 
34 1 2.124468803405762 3.467851161956787 0.013785313814878 
35 1 0.427091777324677 -1.559315919876099 -5.457478046417236 
36 1 -10.600484848022461 -11.350883483886719 10.189737319946289 
37 1 11.563105583190918 -0.645212948322296 5.467849254608154 
38 1 -4.752655982971191 1.446841001510620 -1.398428440093994 
39 1 4.421885490417480 -4.057618141174316 -6.095378875732422 
40 1 -7.233667373657227 -4.514641761779785 2.399316787719727 
41 1 -3.384670495986938 -7.112206935882568 -5.158379077911377 
42 1 3.088171005249023 -10.236431121826172 -9.872394561767578 
43 1 -8.524538040161133 5.328106880187988 -9.088063240051270 
44 1 -2.300380945205688 -8.947913169860840 -1.682133197784424 
45 1 -8.403940200805664 10.680538177490234 7.691817283630371 
46 1 0.689958155155182 9.165346145629883 9.654037475585938 
47 1 7.310088157653809 -9.048847198486328 -4.440776824951172 
48 1 4.882770061492920 -8.962994575500488 8.857517242431641 
49 1 3.525465726852417 11.532467842102051 -5.813993453979492 
50 1 -10.708614349365234 -5.649892807006836 2.163620471954346 
51 1 -5.875772476196289 10.979552268981934 5.284691810607910 
52 1 -11.024876594543457 -0.513569653034210 -0.976092636585236 
53 1 -2.003440856933594 1.061245441436768 1.056882023811340 
54 1 -1.524083495140076 -0.701326072216034 -2.103355169296265 
55 1 3.658043384552002 -4.175785064697266 9.965611457824707 
56 1 2.952733039855957 8.304251670837402 -4.213490009307861 
57 1 6.794959545135498 -5.771492481231689 -10.484941482543945 
58 1 3.774262666702271 5.519696235656738 -1.932648062705994 
59 1 3.831471443176270 9.354293823242188 -8.930202484130859 
60 1 0.536190211772919 5.456171035766602 2.868417739868164 
61 1 2.399698019027710 1.005946397781372 -7.216472148895264 
62 1 8.519437789916992 7.594127655029297 -5.999207496643066 
63 1 -1.800086140632629 -5.526380062103271 -0.265803724527359 
64 1 -5.070267200469971 -6.574504375457764 0.817740976810455 
65 1 8.827208518981934 6.171974182128906 -2.689093828201294 
66 1 0.290157347917557 -3.353249073028564 -8.777936935424805 
67 1 5.454134464263916 -3.752121210098267 1.844827771186829 
68 1 9.281580924987793 7.221255302429199 11.308153152465820 
69 1 -11.521470069885254 -9.654015541076660 -2.361934185028076 
70 1 -6.832221508026123 -3.004827499389648 -6.485281944274902 
71 1 -1.056330204010010 9.614867210388184 -6.090991497039795 
72 1 3.793990850448608 1.162219047546387 2.539448022842407 
73 1 -7.483803272247314 0.466879516839981 -5.042717933654785 
74 1 -3.516471862792969 4.592944145202637 -10.269061088562012 
75 1 -10.541369438171387 -6.088926315307617 10.870799064636230 
76 1 3.608831644058228 10.624190330505371 3.714649915695190 
77 1 3.268674850463867 10.176225662231445 -1.505167841911316 
78 1 10.784543037414551 11.247223854064941 0.222048759460449 
79 1 3.985844373703003 -9.735314369201660 -2.888426303863525 
80 1 10.094733238220215 0.607397556304932 -9.820843696594238 
81 1 -9.812438964843750 0.682416975498199 8.363661766052246 
82 1 1.747996330261230 -6.393195152282715 0.112638801336288 
83 1 -2.591817378997803 9.529888153076172 0.267848581075668 
84 1 1.930470824241638 -0.615759432315826 -10.356103897094727 
85 1 -7.741914272308350 -3.152610778808594 10.853585243225098 
86 1 -8.426571846008301 9.531783103942871 1.793832302093506 
87 1 7.700067043304443 8.220589637756348 8.149512290954590 
88 1 -2.763642549514771 1.788234710693359 -6.528541088104248 
89 1 -2.891443014144897 5.368948459625244 4.765381813049316 
90 1 9.593671798706055 -4.254053115844727 -8.465648651123047 
91 1 3.395870208740234 -11.610825538635254 6.979999065399170 
92 1 3.641956329345703 1.670516371726990 -3.098349571228027 
93 1 -7.168234825134277 8.077303886413574 10.186363220214844 
94 1 -8.628329277038574 7.806383609771729 5.106210231781006 
95 1 -9.057691574096680 10.164599418640137 -10.387744903564453 
96 1 5.703907489776611 4.834709644317627 -9.813698768615723 
97 1 -2.162225008010864 -9.558113098144531 9.629954338073730 
98 1 10.536229133605957 -7.395384311676025 -0.048403862863779 
99 1 0.191933780908585 -7.226221561431885 9.943358421325684 
100 1 -7.083991527557373 8.145464897155762 -2.069132804870605 
101 1 4.147343158721924 -0.990900158882141 5.592195510864258 
102 1 6.955914497375488 1.562137007713318 11.089271545410156 
103 1 0.557966291904449 -9.818927764892578 7.189095973968506 
104 1 -10.144432067871094 0.642916202545166 -11.424616813659668 
105 1 7.234773635864258 11.159861564636230 -5.571689605712891 
106 1 -9.645135879516602 -1.807812690734863 -4.269649028778076 
107 1 -5.132097244262695 -4.955745220184326 10.206142425537109 
108 1 -1.635174989700317 6.229929924011230 -4.404875278472900 
109 1 -10.616899490356445 8.038255691528320 -8.115744590759277 
110 1 -1.293144106864929 6.407443046569824 10.746100425720215 
111 1 -1.839238643646240 7.821758270263672 -9.295239448547363 
112 1 7.580609321594238 -7.545779705047607 3.956275701522827 
113 1 11.168938636779785 0.626063346862793 -4.675539016723633 
114 1 11.382471084594727 9.061095237731934 -4.461238384246826 
115 1 6.779076576232910 3.629669427871704 -3.164999485015869 
116 1 -7.898639678955078 -7.610855579376221 4.169106960296631 
117 1 -2.248293399810791 -3.742168188095093 7.642203807830811 
118 1 -2.927665710449219 9.068263053894043 6.505889415740967 
119 1 3.481253385543823 -6.992428779602051 -11.584743499755859 
120 1 11.124246597290039 9.572076797485352 8.725372314453125 
121 1 9.822050094604492 4.080622196197510 -5.494320869445801 
122 1 -6.577122688293457 11.379551887512207 -4.046612739562988 
123 1 -11.611426353454590 3.969470739364624 8.933654785156250 
124 1 7.518465995788574 -11.467429161071777 8.742863655090332 
125 1 -7.008676528930664 0.512756466865540 11.014369010925293 
126 1 -9.781148910522461 1.454259634017944 3.003264427185059 
127 1 -10.758710861206055 2.696590900421143 -7.641697883605957 
128 1 -3.072383642196655 0.098196223378181 7.516100883483887 
129 1 2.678587675094604 -6.229193687438965 7.100100517272949 
130 1 -3.865101099014282 -4.512908935546875 -7.805068016052246 
131 1 -3.650765895843506 6.404100418090820 -1.463790059089661 
132 1 4.875082015991211 -7.707137584686279 1.348752260208130 
133 1 -5.575934410095215 7.595384597778320 -9.601617813110352 
134 1 -7.918438434600830 0.272604465484619 -8.575122833251953 
135 1 7.320653915405273 9.515164375305176 -8.896762847900391 
136 1 -8.277184486389160 -8.849617004394531 8.928642272949219 
137 1 -1.554288625717163 -4.017891883850098 -3.701645612716675 
138 1 -7.222584724426270 -0.784966707229614 1.474579453468323 
139 1 -5.284685134887695 -10.820625305175781 8.259625434875488 
140 1 -4.276544094085693 3.668284654617310 -3.714588165283203 
141 1 8.465713500976562 -9.056117057800293 -10.619647026062012 
142 1 1.511324167251587 8.464486122131348 1.305274844169617 
143 1 0.333944529294968 1.935992717742920 3.924492835998535 
144 1 8.749775886535645 11.024807929992676 -2.385535001754761 
145 1 7.303809642791748 -9.184351921081543 -0.830558359622955 
146 1 -11.475653648376465 -2.699524641036987 -11.089475631713867 
147 1 -1.845406413078308 1.138907670974731 10.427973747253418 
148 1 5.731020450592041 0.942586421966553 -0.550533652305603 
149 1 -4.874955177307129 -4.904178142547607 -2.460908412933350 
150 1 6.510484218597412 -2.413594722747803 -1.488168358802795 
151 1 9.540140151977539 10.862235069274902 -11.388280868530273 
152 1 0.953652560710907 -2.952020406723022 -1.047985315322876 
153 1 -1.179545283317566 -2.637225389480591 1.933708667755127 
154 1 5.176340579986572 6.995454311370850 -6.843347072601318 
155 1 9.357357025146484 -1.644799232482910 0.772771835327148 
156 1 -6.435794353485107 2.924568653106689 1.698733448982239 
157 1 5.884514808654785 1.871987104415894 7.421000003814697 
158 1 10.074703216552734 -0.375609070062637 9.852742195129395 
159 1 -7.589924812316895 6.093738079071045 2.056345224380493 
160 1 -3.695180416107178 4.359963417053223 9.303514480590820 
161 1 -6.648301601409912 0.646620452404022 4.826456069946289 
162 1 -3.659278631210327 9.325367927551270 9.945208549499512 
163 1 11.553761482238770 -7.264667510986328 -9.198629379272461 
164 1 -1.937666773796082 -4.894263267517090 -11.230528831481934 
165 1 7.661492347717285 4.133339405059814 0.279793471097946 
166 1 -7.469868659973145 10.481227874755859 -7.165231227874756 
167 1 -5.630846023559570 -8.504902839660645 -3.027699232101440 
168 1 8.096263885498047 -2.433065891265869 -10.358225822448730 
169 1 0.993151247501373 -8.954207420349121 -6.905385017395020 
170 1 -0.273819476366043 9.743475914001465 -2.556107521057129 
171 1 6.949689865112305 -5.879414558410645 9.017176628112793 
172 1 -8.482627868652344 7.317024230957031 -5.545661926269531 
173 1 3.413156509399414 -2.239222288131714 -3.305958509445190 
174 1 3.076075077056885 -5.696519851684570 3.694602012634277 
175 1 -11.258996009826660 -9.448440551757812 6.965151786804199 
176 1 -4.949862003326416 6.190730094909668 -6.193426132202148 
177 1 9.006503105163574 -4.961084365844727 1.785301089286804 
178 1 4.898583889007568 4.076527118682861 4.445008277893066 
179 1 6.084390163421631 -10.149527549743652 -7.936553001403809 
180 1 -10.844036102294922 4.289914131164551 -11.137976646423340 
181 1 -10.942839622497559 -1.895170331001282 -7.855189800262451 
182 1 2.308768510818481 -9.882404327392578 0.257422983646393 
183 1 3.999263525009155 8.198145866394043 8.088327407836914 
184 1 -3.917930603027344 -8.909184455871582 -10.467191696166992 
185 1 -7.253404140472412 -7.165727138519287 -10.966973304748535 
186 1 0.302491605281830 1.612323522567749 -4.352516651153564 
187 1 -5.205363273620605 -1.947797298431396 -10.108681678771973 
188 1 9.388721466064453 8.288890838623047 0.317989856004715 
189 1 9.946876525878906 5.397167682647705 -8.540855407714844 
190 1 2.332648277282715 -10.558273315429688 10.267618179321289 
191 1 -6.679953575134277 4.342759132385254 11.214605331420898 
192 1 10.466443061828613 10.690301895141602 -7.289916992187500 
193 1 -0.497370094060898 11.560533523559570 1.955204844474792 
194 1 2.328165769577026 7.087085247039795 -11.139794349670410 
195 1 -8.993692398071289 -8.292723655700684 -4.385073661804199 
196 1 5.857632637023926 -4.502504825592041 5.576185226440430 
197 1 -8.471969604492188 -4.781355381011963 -3.460733175277710 
198 1 7.625012397766113 2.298521280288696 -7.929409503936768 
199 1 8.930221557617188 -1.131643533706665 -6.761417388916016 
200 1 10.778367996215820 -3.963478565216064 -1.326582670211792 
201 1 -9.505768775939941 -10.993662834167480 4.372480392456055 
202 1 3.877189636230469 -3.746054172515869 -9.725559234619141 
203 1 8.351991653442383 3.060184001922607 3.739418983459473 
204 1 -8.449954032897949 -7.042641639709473 -0.402391642332077 
205 1 -6.734156131744385 2.636001586914062 8.039932250976562 
206 1 10.389740943908691 5.727813243865967 2.181505441665649 
207 1 -6.491623401641846 -6.528945446014404 -7.426466941833496 
208 1 -2.459863424301147 -10.713898658752441 -8.011894226074219 
209 1 -0.017339158803225 -8.124897956848145 2.564348936080933 
210 1 5.395192146301270 -0.386363834142685 -5.906627178192139 
211 1 5.745940685272217 8.024578094482422 11.398166656494141 
212 1 -4.071226596832275 -1.073331713676453 3.196455955505371 
213 1 2.661110877990723 6.102297782897949 5.913468360900879 
214 1 6.193769931793213 -10.351065635681152 5.502768039703369 
215 1 -1.602677583694458 10.971426963806152 -11.272080421447754 
216 1 6.659619331359863 9.121117591857910 1.997826457023621 
217 1 -2.267429351806641 -1.077556252479553 -7.939292430877686 
218 1 4.925956249237061 3.324105978012085 -6.257865905761719 
219 1 7.044209003448486 -6.148030281066895 -6.646345615386963 
220 1 -6.484371185302734 -1.200457096099854 7.858512401580811 
221 1 -1.052895426750183 8.271882057189941 3.537226438522339 
222 1 -1.959070682525635 -7.393382549285889 6.715113162994385 
223 2 -5.212546348571777 -1.429025292396545 1.373059749603271 
224 2 -9.134431838989258 8.481337547302246 -1.463263034820557 
225 2 10.334647178649902 9.575887680053711 4.705004215240479 
226 2 6.451498985290527 2.704889297485352 -0.326501965522766 
227 2 -4.370858669281006 -8.245125770568848 1.188416719436646 
228 2 9.227127075195312 -2.718401670455933 -5.454061031341553 
229 2 9.185901641845703 -8.804048538208008 -5.235767364501953 
230 2 -8.159244537353516 7.724351406097412 1.029301762580872 
231 2 -6.145240783691406 9.599372863769531 -3.297551393508911 
232 2 10.925655364990234 10.976209640502930 10.230031013488770 
233 2 -5.903902053833008 2.827302455902100 -0.553388714790344 
234 2 6.631953239440918 -10.711522102355957 3.695430994033813 
235 2 7.300274372100830 -4.304793357849121 -2.232326269149780 
236 2 10.672858238220215 -5.901316165924072 -1.330702424049377 
237 2 9.159368515014648 10.232747077941895 -8.623216629028320 
238 2 -5.164124488830566 -10.571550369262695 -10.817604064941406 
239 2 11.001622200012207 -3.536455154418945 -7.330825805664062 
240 2 -3.638467311859131 8.233995437622070 -9.727925300598145 
241 2 7.471141815185547 7.700146675109863 10.353962898254395 
242 2 6.057684421539307 3.629145860671997 -8.065243721008301 
243 2 -9.638251304626465 -11.236169815063477 -9.676936149597168 
244 2 -2.787034511566162 8.612760543823242 4.482409477233887 
245 2 -1.112743258476257 9.597170829772949 -9.862553596496582 
246 2 4.300813198089600 -10.543910980224609 -7.076168060302734 
247 2 6.289365291595459 -5.905580997467041 -8.524423599243164 
248 2 9.323282241821289 10.064312934875488 -0.638515174388885 
249 2 -6.311675548553467 -9.002389907836914 8.186022758483887 
250 2 -6.874307155609131 -11.082438468933105 -8.011838912963867 
251 2 -3.957653045654297 10.283987045288086 -1.097022533416748 
252 2 -11.439372062683105 -10.018218040466309 11.426738739013672 
253 2 2.073906898498535 4.233924388885498 8.302605628967285 
254 2 -9.352959632873535 1.591837406158447 -8.373435020446777 
255 2 -11.413870811462402 7.500417232513428 -3.521078109741211 
256 2 -6.905616283416748 10.650965690612793 1.828537821769714 
257 2 10.885719299316406 0.767654955387115 -0.642594933509827 
258 2 10.500011444091797 2.683289766311646 -4.210520744323730 
259 2 11.596109390258789 8.453086853027344 7.288637161254883 
260 2 11.237075805664062 10.927663803100586 -10.402384757995605 
261 2 4.603479862213135 -3.512553930282593 -7.932710170745850 
262 2 4.587441444396973 5.165539741516113 2.853370428085327 
263 2 -0.407489776611328 -8.547957420349121 -2.083365917205811 
264 2 -3.711583614349365 -5.246345520019531 11.520121574401855 
265 2 -3.738558292388916 0.921369910240173 0.091441094875336 
266 2 -3.695052146911621 -3.752775430679321 6.493703842163086 
267 2 -2.263205766677856 -10.503919601440430 -2.823556661605835 
268 2 -4.471358299255371 8.148382186889648 -5.262154579162598 
269 2 9.408909797668457 7.381325244903564 -1.339079141616821 
270 2 -9.812576293945312 10.735794067382812 11.326937675476074 
271 2 -7.895570278167725 -9.019233703613281 -10.204734802246094 
272 2 3.276427030563354 -4.678464889526367 -11.459134101867676 
273 2 -8.698461532592773 -5.943561077117920 -1.919915556907654 
274 2 10.196493148803711 -3.216058731079102 -10.130929946899414 
275 2 -9.011468887329102 -0.122893713414669 2.044742822647095 
276 2 5.490463256835938 -0.966797232627869 -0.712332785129547 
277 2 7.875630378723145 4.606687068939209 -1.650627613067627 
278 2 -3.339411497116089 -0.149646416306496 -6.246613979339600 
279 2 7.263079643249512 8.464221954345703 0.102355681359768 
280 2 -4.731884002685547 -10.938659667968750 1.277429699897766 
281 2 2.516643047332764 -9.597773551940918 -1.580504059791565 
282 2 -10.287682533264160 -3.719425678253174 -3.854280233383179 
283 2 -9.708258628845215 -8.350955963134766 7.553543090820312 
284 2 -8.420968055725098 1.201947689056396 4.315031051635742 
285 2 9.010219573974609 2.032052755355835 -10.543650627136230 
286 2 7.748288631439209 -2.639473438262939 11.128774642944336 
287 2 -2.215297222137451 -1.524258017539978 3.744543075561523 
288 2 9.325962066650391 2.829002618789673 -0.136696398258209 
289 2 -6.804170131683350 6.285814762115479 10.984441757202148 
290 2 -8.570368766784668 9.238414764404297 6.483378410339355 
291 2 11.244026184082031 6.802997589111328 -8.364113807678223 
292 2 2.017923355102539 6.147456169128418 -1.449827432632446 
293 2 -7.979371547698975 -3.396496295928955 -4.901362895965576 
294 2 -3.190048933029175 0.755694389343262 2.651690244674683 
295 2 -10.366302490234375 -6.073170185089111 -8.452039718627930 
296 2 -4.285300254821777 6.313772678375244 5.649796962738037 
297 2 3.490406751632690 -5.709278106689453 -9.136109352111816 
298 2 -1.049978017807007 11.216399192810059 -7.687892913818359 
299 2 -8.787171363830566 -10.194036483764648 -4.148790836334229 
300 2 -1.928580999374390 7.376913070678711 6.626775264739990 
301 2 1.379197001457214 -10.833210945129395 -6.353298187255859 
302 2 -8.264286994934082 1.866219639778137 -3.817032337188721 
303 2 -7.358959197998047 -6.138330459594727 -9.258390426635742 
304 2 -6.714457988739014 -3.989977836608887 9.507977485656738 
305 2 -1.839885354042053 0.919884443283081 -8.229045867919922 
306 2 -1.999650239944458 -9.624423980712891 0.037397168576717 
307 2 -2.580523490905762 3.861233234405518 3.497575521469116 
308 2 2.699179887771606 -0.325899124145508 1.600876212120056 
309 2 2.017025232315063 -3.745128631591797 -2.632858514785767 
310 2 -9.241539001464844 -3.993463039398193 7.068336486816406 
311 2 7.524831295013428 -11.526780128479004 6.414588928222656 
312 2 -5.036448478698730 -2.348426103591919 -6.114632129669189 
313 2 5.868326663970947 8.022407531738281 7.131855010986328 
314 2 1.448826670646667 -6.183437824249268 -4.301528930664062 
315 2 3.905173540115356 4.130569458007812 -9.829359054565430 
316 2 0.124095186591148 8.963048934936523 4.847329616546631 
317 2 0.974703609943390 -10.995656967163086 1.055214643478394 
318 2 -7.973726749420166 -3.536677837371826 -7.888735771179199 
319 2 5.992318153381348 -10.752284049987793 9.768130302429199 
320 2 -11.103011131286621 -11.072830200195312 0.877813398838043 
321 2 -3.303124189376831 -4.704586982727051 -3.498322486877441 
322 2 1.669261693954468 7.416838169097900 -5.424089431762695 
323 2 -8.484861373901367 1.941597938537598 7.783278465270996 
324 2 10.204379081726074 -8.663240432739258 -9.382128715515137 
325 2 -5.180238723754883 -10.381560325622559 6.256374835968018 
326 2 11.410583496093750 -0.906144440174103 -9.434293746948242 
327 2 -10.705188751220703 -3.968067169189453 -0.948352158069611 
328 2 -2.075609922409058 3.075467824935913 0.431162714958191 
329 2 8.390867233276367 11.403986930847168 10.395091056823730 
330 2 7.173004627227783 10.010875701904297 8.516330718994141 
331 2 9.865661621093750 6.596357822418213 5.878584861755371 
332 2 -7.066240787506104 -3.848356485366821 4.300826549530029 
333 2 -2.427434921264648 -7.706950187683105 -6.720642089843750 
334 2 -6.413088798522949 1.532986640930176 -9.048199653625488 
335 2 3.065253973007202 6.155575275421143 -3.702576160430908 
336 2 5.939843177795410 -3.650219917297363 -0.085926458239555 
337 2 7.832703590393066 -10.959916114807129 -1.322550415992737 
338 2 -0.992895185947418 -6.039208889007568 10.854395866394043 
339 2 -9.575061798095703 0.815862357616425 -1.064278483390808 
340 2 -9.103900909423828 -6.252613067626953 -4.510982990264893 
341 2 7.258316040039062 9.855140686035156 -2.581349849700928 
342 2 7.941795349121094 3.107277154922485 10.409855842590332 
343 2 -11.198992729187012 5.220622062683105 5.333825588226318 
344 2 8.211386680603027 8.026444435119629 -7.886829853057861 
345 2 -4.933238029479980 4.609262466430664 -7.414207935333252 
346 2 -11.163507461547852 3.037915706634521 -1.197961330413818 
347 2 5.025725364685059 -2.718892335891724 5.407086849212646 
348 2 10.476675987243652 4.974671363830566 -2.423433065414429 
349 2 4.969493389129639 7.825996875762939 9.681141853332520 
350 2 9.559023857116699 -10.938523292541504 1.153530478477478 
351 2 -5.133010387420654 -7.588746547698975 -6.216385841369629 
352 2 5.294635772705078 2.568517446517944 11.619273185729980 
353 2 -5.861421585083008 -11.050328254699707 3.882684230804443 
354 2 1.190997123718262 -4.868911266326904 6.356549263000488 
355 2 3.504033565521240 -10.572034835815430 8.706092834472656 
356 2 2.442143201828003 -5.864894866943359 1.841365694999695 
357 2 3.727284431457520 -2.352432489395142 10.356409072875977 
358 2 1.992907404899597 -1.839825510978699 -4.470891475677490 
359 2 -4.240473270416260 -8.942399024963379 -1.787828922271729 
360 2 9.856802940368652 2.189009428024292 2.981266975402832 
361 2 -11.529362678527832 -5.968909740447998 7.018336772918701 
362 2 3.257211923599243 -11.589156150817871 -0.092684864997864 
363 2 8.771827697753906 -2.382893800735474 -8.261101722717285 
364 2 -8.502037048339844 -3.739880561828613 -10.882379531860352 
365 2 -9.455618858337402 6.671482563018799 6.709450244903564 
366 2 -4.484323501586914 11.288784027099609 -3.882207393646240 
367 2 -7.904706478118896 4.369248390197754 -10.708971023559570 
368 2 -0.877426505088806 -5.403589248657227 -2.181864023208618 
369 2 0.181889414787292 -7.408267498016357 -9.545446395874023 
370 2 -2.312590122222900 8.709673881530762 -7.536306381225586 
371 2 -8.290963172912598 -6.046346664428711 -6.882858276367188 
372 2 -4.081520080566406 -7.534564495086670 3.878074645996094 
373 2 -2.614451169967651 -1.837636351585388 8.187363624572754 
374 2 11.224717140197754 5.209249496459961 -4.855479240417480 
375 2 -1.556700944900513 -3.348584651947021 10.868389129638672 
376 2 -0.219459205865860 -6.378755569458008 0.508709192276001 
377 2 4.574371814727783 -2.147828817367554 -5.442091941833496 
378 2 10.181017875671387 -3.742274284362793 -3.139510631561279 
379 2 6.862599849700928 -9.931777954101562 -11.219807624816895 
380 2 -11.510902404785156 -8.257003784179688 5.507326602935791 
381 2 -6.803998470306396 4.603660106658936 3.101555347442627 
382 2 10.551999092102051 9.754621505737305 1.568898439407349 
383 2 -5.656796455383301 -0.141859918832779 -1.641730785369873 
384 2 -0.575747609138489 -8.782601356506348 11.034311294555664 
385 2 -10.324356079101562 8.482248306274414 -10.025500297546387 
386 2 -7.329731941223145 4.419825553894043 -3.094062566757202 
387 2 -5.001558780670166 3.107451915740967 8.544501304626465 
388 2 7.078800678253174 6.978619098663330 -2.620543479919434 
389 2 -7.896487236022949 7.787547111511230 -3.788433313369751 
390 2 4.078053951263428 10.147391319274902 7.769862174987793 
391 2 -11.176799774169922 -0.663866579532623 9.052430152893066 
392 2 1.874714136123657 5.364892482757568 -7.010605812072754 
393 2 -7.440529346466064 -1.218306660652161 -6.284515380859375 
394 2 4.796256542205811 -0.035230919718742 3.874544143676758 
395 2 -1.055244803428650 5.366041660308838 1.685196280479431 
396 2 10.932943344116211 -1.940767288208008 4.054360389709473 
397 2 -6.574493885040283 3.257729530334473 -5.667961120605469 
398 2 -1.042799115180969 -1.080273151397705 -6.491531848907471 
399 2 -3.682393074035645 -9.825690269470215 8.562074661254883 
400 2 -0.502159535884857 6.934231281280518 -8.060108184814453 
401 2 9.828937530517578 -4.514384269714355 3.663860082626343 
402 2 -10.996821403503418 -4.478287220001221 4.917191028594971 
403 2 -6.536171436309814 -5.008727550506592 -3.361500978469849 
404 2 3.659751892089844 -3.131175994873047 1.708454966545105 
405 2 -8.218956947326660 -4.881644248962402 0.560113608837128 
406 2 3.006872177124023 0.707874119281769 6.196580410003662 
407 2 5.692702293395996 -0.075657747685909 6.583336830139160 
408 2 -10.168446540832520 -6.586307525634766 0.524078488349915 
409 2 5.204007148742676 -5.789551734924316 1.142283678054810 
410 2 5.576630115509033 -4.151906967163086 -10.563927650451660 
411 2 0.880237460136414 -2.340313673019409 0.954270422458649 
412 2 -0.946021139621735 -9.930040359497070 2.483376502990723 
413 2 -4.981126785278320 7.409553527832031 -7.680744647979736 
414 2 -7.605588436126709 -1.475705146789551 -0.342747092247009 
415 2 3.942548274993896 -5.357136249542236 5.708279609680176 
416 2 9.583022117614746 -1.761609911918640 6.086068630218506 
417 2 8.365793228149414 -4.314634799957275 9.008220672607422 
418 2 -6.356339454650879 -10.496727943420410 -5.391952991485596 
419 2 -1.255845069885254 -0.816896259784698 10.451219558715820 
420 2 3.489740133285522 7.618862628936768 -7.851804733276367 
421 2 -10.569672584533691 0.618023455142975 6.597295761108398 
422 2 9.252039909362793 7.262624263763428 -4.232843875885010 
423 2 -1.928746104240417 4.567212581634521 6.274177551269531 
424 2 4.112469673156738 -9.616820335388184 1.230521202087402 
425 2 -0.029585802927613 -10.968732833862305 5.690029621124268 
426 2 -6.566185951232910 -0.545852422714233 3.299880266189575 
427 2 8.045430183410645 -2.038940191268921 -0.457186937332153 
428 2 -2.856989383697510 -1.646635651588440 -1.044929862022400 
429 2 3.898199796676636 2.848989248275757 -4.613234519958496 
430 2 1.548146724700928 -9.754463195800781 -8.740286827087402 
431 2 -5.323965549468994 8.501994132995605 9.790580749511719 
432 2 -11.074768066406250 -9.973638534545898 3.503243207931519 
433 2 -10.610830307006836 7.994990825653076 4.848124980926514 
434 2 6.167520523071289 -5.352051258087158 7.330498695373535 
435 2 -1.648271441459656 -6.256054401397705 5.090776920318604 
436 2 9.921817779541016 0.430094778537750 -2.957833528518677 
437 2 -11.013931274414062 -3.728530645370483 1.927560329437256 
438 2 -5.893798351287842 9.577836036682129 -8.618530273437500 
439 2 -3.363026380538940 -10.235337257385254 3.756990194320679 
440 2 -1.475305438041687 1.965423703193665 4.830304145812988 
441 2 -6.896457672119141 -10.865568161010742 -0.085309393703938 
442 2 1.211189746856689 8.278718948364258 11.343044281005859 
443 2 -0.872949779033661 -9.481145858764648 -8.063052177429199 
444 2 -6.869762897491455 4.733742713928223 0.684521853923798 
445 2 -7.260101318359375 1.198164105415344 -6.819496154785156 
446 2 7.413111209869385 1.452908515930176 3.951398134231567 
447 2 -6.606052875518799 0.742115855216980 9.025487899780273 
448 2 0.309841662645340 3.847800970077515 3.806302070617676 
449 2 9.256279945373535 5.793411731719971 -6.707615375518799 
450 2 11.585719108581543 -6.522075176239014 3.605744838714600 
451 2 0.755286574363708 2.340874433517456 5.991281986236572 
452 2 2.762489557266235 -1.521218538284302 4.368947029113770 
453 2 2.581690073013306 -1.713839054107666 -1.425046443939209 
454 2 -4.569571971893311 3.324420452117920 1.794226169586182 
455 2 10.217976570129395 0.706005156040192 5.763562679290771 
456 2 -6.411294937133789 10.982483863830566 7.227309226989746 
457 2 3.898390293121338 8.211627006530762 -10.718354225158691 
458 2 -3.389007329940796 0.214932084083557 9.520232200622559 
459 2 5.915008544921875 4.917722225189209 9.573105812072754 
460 2 -1.852218270301819 -5.602573394775391 7.594754219055176 
461 2 6.899414539337158 8.354469299316406 -10.389832496643066 
462 2 11.411642074584961 5.734910011291504 8.089523315429688 
463 2 -1.201519131660461 6.343414306640625 4.186834812164307 
464 2 0.607626020908356 -1.420744657516479 6.561331272125244 
465 2 5.495130062103271 2.103983402252197 -2.619043827056885 
466 2 9.752589225769043 -4.605934619903564 6.324795246124268 
467 2 -4.846396446228027 4.417777061462402 10.821458816528320 
468 2 9.552363395690918 -10.670206069946289 -10.669469833374023 
469 2 -8.756851196289062 -9.228968620300293 4.871675014495850 
470 2 -8.889036178588867 -8.946482658386230 0.106509514153004 
471 2 2.515244245529175 -7.198056697845459 5.293130397796631 
472 2 0.394393861293793 0.537939906120300 -10.288894653320312 
473 2 6.713994503021240 -7.407363891601562 -5.207014560699463 
474 2 -2.374527931213379 -7.890153408050537 -9.836524009704590 
475 2 -0.969048976898193 9.984355926513672 -0.764494955539703 