LAMMPS (7 Dec 2015)
# Tantala heating to find melting temp. and glass transition temp.
# Intervals of 400 K (starting at 0 K) to be merged with the date from the even directory (also has intervals of 400 K starting at 200 K)
# Including rdf compute and initial velocity seed
# I've written a loop that makes melting/cooling simulation codes less tedious (In test directory input file)

# Initialization

units		metal
atom_style	charge
dimension	3
boundary	p p p

# Optional

neighbor	1.0 nsq
neigh_modify	every 1 delay 1 check yes

# Defining atomic system (896 atoms)

read_data	min1.dat
  triclinic box = (0 0 0) to (23.3007 23.3007 23.3007) with tilt (0 0 0)
  2 by 2 by 3 MPI processor grid
  reading atoms ...
  1008 atoms

# Potential

kspace_style	ewald 1.0e-6
#For low-temperature simulations, comment out the following line
#pair_style	hybrid/overlay lj246/cut 10 buck/coul/long 10 morse 10
#For low-temperature simulations, un-comment the following line
pair_style      hybrid/overlay buck/coul/long 10 morse 10

pair_coeff      1 2 buck/coul/long 100067.01 0.1319 6.05
pair_coeff      2 2 buck/coul/long 1388.773 0.3623188 175.0000
pair_coeff      1 1 buck/coul/long 0.00000000 1.0000000 0.000000
pair_coeff	2 3 buck/coul/long 17243.00 0.2265 128.35
pair_coeff      1 3 buck/coul/long 0.00000000 1.0000000 0.000000
pair_coeff      3 3 buck/coul/long 0.00000000 1.0000000 0.000000
pair_coeff 	1 2 morse 	   0.3789 1.6254 2.5445
#Remove these lines if running low-temperature simulation
#pair_coeff      1 2 lj246/cut	   0.01 0.51
#pair_coeff	2 2 lj246/cut 	   0.00035653 1.9000

# MD parameters

#1 fs timestep
timestep 0.001
thermo		50

fix		1 all nvt temp 10 10 0.1
velocity	all create 10 26684

load_tls min1.dump 1 0
  triclinic box = (0 0 0) to (23.3007 23.3007 23.3007) with tilt (0 0 0)
  1008 atoms before read
  1008 atoms in snapshot
  0 atoms purged
  1008 atoms replaced
  0 atoms trimmed
  0 atoms added
  1008 atoms after read
load_tls min2.dump 2 0
  triclinic box = (0 0 0) to (23.3007 23.3007 23.3007) with tilt (0 0 0)
  1008 atoms before read
  1008 atoms in snapshot
  0 atoms purged
  1008 atoms replaced
  0 atoms trimmed
  0 atoms added
  1008 atoms after read
couple_elastic 0.005 linear
  triclinic box = (0.0582517 0 0) to (23.2424 23.3007 23.3007) with tilt (0 0 0)
WARNING: Resetting reneighboring criteria during minimization (../min.cpp:168)
Ewald initialization ...
  G vector (1/distance) = 0.365089
  estimated absolute RMS force accuracy = 1.92191e-05
  estimated relative force accuracy = 1.33469e-06
  KSpace vectors: actual max1d max3d = 2088 10 4630
                  kxmax kymax kzmax  = 10 10 10
Neighbor list info ...
  2 neighbor list requests
  update every 1 steps, delay 0 steps, check yes
  max neighbors/atom: 2000, page size: 100000
  master list distance cutoff = 11
  ghost atom cutoff = 11
Memory usage per processor = 4.56229 Mbytes
Step Temp E_pair E_mol TotEng Press 
       0           10   -18273.796            0   -18272.495    3781.2833 
      18           10   -18273.947            0   -18272.646    90.203079 
Loop time of 0.268323 on 12 procs for 18 steps with 1008 atoms

98.0% CPU use with 12 MPI tasks x no OpenMP threads

Minimization stats:
  Stopping criterion = linesearch alpha is zero
  Energy initial, next-to-last, final = 
        -18273.7961626      -18273.947378      -18273.947378
  Force two-norm initial, final = 1.8169 0.170135
  Force max component initial, final = 0.159283 0.0189331
  Final line search alpha, max atom move = 2.38419e-07 4.51401e-09
  Iterations, force evaluations = 18 79

MPI task timing breakdown:
Section |  min time  |  avg time  |  max time  |%varavg| %total
---------------------------------------------------------------
Pair    | 0.083525   | 0.091013   | 0.10881    |   2.2 | 33.92
Kspace  | 0.14071    | 0.15108    | 0.15581    |   1.1 | 56.30
Neigh   | 0          | 0          | 0          |   0.0 |  0.00
Comm    | 0.012404   | 0.024264   | 0.029441   |   2.7 |  9.04
Output  | 0          | 0          | 0          |   0.0 |  0.00
Modify  | 0          | 0          | 0          |   0.0 |  0.00
Other   |            | 0.001968   |            |       |  0.73

Nlocal:    84 ave 88 max 79 min
Histogram: 1 1 1 0 2 1 1 3 1 1
Nghost:    2611.83 ave 2632 max 2588 min
Histogram: 2 1 2 1 0 0 0 2 0 4
Neighs:    18728.3 ave 19443 max 17591 min
Histogram: 2 0 1 0 0 2 1 1 3 2

Total # of neighbors = 224740
Ave neighs/atom = 222.956
Neighbor list builds = 0
Dangerous builds = 0
  triclinic box = (0.0388306 0 0) to (23.2618 23.3007 23.3007) with tilt (0 0 0)
WARNING: Resetting reneighboring criteria during minimization (../min.cpp:168)
Ewald initialization ...
  G vector (1/distance) = 0.365078
  estimated absolute RMS force accuracy = 1.92793e-05
  estimated relative force accuracy = 1.33888e-06
  KSpace vectors: actual max1d max3d = 2084 10 4630
                  kxmax kymax kzmax  = 10 10 10
Memory usage per processor = 4.56229 Mbytes
Step Temp E_pair E_mol TotEng Press 
      18           10   -18273.884            0   -18272.582    188.83824 
      35           10   -18273.949            0   -18272.647   -2234.8584 
Loop time of 0.257078 on 12 procs for 17 steps with 1008 atoms

98.0% CPU use with 12 MPI tasks x no OpenMP threads

Minimization stats:
  Stopping criterion = linesearch alpha is zero
  Energy initial, next-to-last, final = 
        -18273.8839051     -18273.9488578     -18273.9488578
  Force two-norm initial, final = 1.20387 0.124311
  Force max component initial, final = 0.105172 0.0121035
  Final line search alpha, max atom move = 4.76837e-07 5.77139e-09
  Iterations, force evaluations = 17 75

MPI task timing breakdown:
Section |  min time  |  avg time  |  max time  |%varavg| %total
---------------------------------------------------------------
Pair    | 0.07802    | 0.086186   | 0.095488   |   1.9 | 33.53
Kspace  | 0.1347     | 0.14627    | 0.1513     |   1.3 | 56.90
Neigh   | 0          | 0          | 0          |   0.0 |  0.00
Comm    | 0.010183   | 0.023025   | 0.028151   |   2.9 |  8.96
Output  | 0          | 0          | 0          |   0.0 |  0.00
Modify  | 0          | 0          | 0          |   0.0 |  0.00
Other   |            | 0.001599   |            |       |  0.62

Nlocal:    84 ave 88 max 79 min
Histogram: 1 1 1 0 2 1 1 3 1 1
Nghost:    2606.33 ave 2630 max 2579 min
Histogram: 2 1 2 1 0 0 0 2 0 4
Neighs:    18695.6 ave 19408 max 17558 min
Histogram: 2 0 1 0 0 2 1 1 3 2

Total # of neighbors = 224347
Ave neighs/atom = 222.566
Neighbor list builds = 0
Dangerous builds = 0
  triclinic box = (0.0194211 0 0) to (23.2813 23.3007 23.3007) with tilt (0 0 0)
WARNING: Resetting reneighboring criteria during minimization (../min.cpp:168)
Ewald initialization ...
  G vector (1/distance) = 0.365066
  estimated absolute RMS force accuracy = 1.9345e-05
  estimated relative force accuracy = 1.34344e-06
  KSpace vectors: actual max1d max3d = 2084 10 4630
                  kxmax kymax kzmax  = 10 10 10
Memory usage per processor = 4.56229 Mbytes
Step Temp E_pair E_mol TotEng Press 
      35           10   -18273.885            0   -18272.583   -3363.1719 
      48           10   -18273.901            0   -18272.599   -4516.8378 
Loop time of 0.198243 on 12 procs for 13 steps with 1008 atoms

99.1% CPU use with 12 MPI tasks x no OpenMP threads

Minimization stats:
  Stopping criterion = linesearch alpha is zero
  Energy initial, next-to-last, final = 
         -18273.884936     -18273.9009446     -18273.9009446
  Force two-norm initial, final = 0.59807 0.0836124
  Force max component initial, final = 0.0520756 0.00741147
  Final line search alpha, max atom move = 9.53674e-07 7.06813e-09
  Iterations, force evaluations = 13 65

MPI task timing breakdown:
Section |  min time  |  avg time  |  max time  |%varavg| %total
---------------------------------------------------------------
Pair    | 0.067375   | 0.073405   | 0.080892   |   1.2 | 37.03
Kspace  | 0.10414    | 0.11197    | 0.11492    |   0.8 | 56.48
Neigh   | 0          | 0          | 0          |   0.0 |  0.00
Comm    | 0.0087607  | 0.011528   | 0.014737   |   1.7 |  5.82
Output  | 0          | 0          | 0          |   0.0 |  0.00
Modify  | 0          | 0          | 0          |   0.0 |  0.00
Other   |            | 0.001344   |            |       |  0.68

Nlocal:    84 ave 88 max 79 min
Histogram: 1 1 1 0 2 1 1 3 1 1
Nghost:    2604.33 ave 2628 max 2578 min
Histogram: 2 1 3 0 0 0 0 2 0 4
Neighs:    18663.9 ave 19369 max 17531 min
Histogram: 2 0 1 0 0 2 1 1 3 2

Total # of neighbors = 223967
Ave neighs/atom = 222.189
Neighbor list builds = 0
Dangerous builds = 0
  triclinic box = (0 0 0) to (23.3007 23.3007 23.3007) with tilt (0 0 0)
WARNING: Resetting reneighboring criteria during minimization (../min.cpp:168)
Ewald initialization ...
  G vector (1/distance) = 0.365055
  estimated absolute RMS force accuracy = 1.94166e-05
  estimated relative force accuracy = 1.34841e-06
  KSpace vectors: actual max1d max3d = 2084 10 4630
                  kxmax kymax kzmax  = 10 10 10
Memory usage per processor = 4.56229 Mbytes
Step Temp E_pair E_mol TotEng Press 
      48           10   -18273.803            0   -18272.501   -6879.9656 
      50           10   -18273.803            0   -18272.501   -6875.8217 
      52           10   -18273.803            0   -18272.501   -6874.1217 
Loop time of 0.0943842 on 12 procs for 4 steps with 1008 atoms

99.1% CPU use with 12 MPI tasks x no OpenMP threads

Minimization stats:
  Stopping criterion = linesearch alpha is zero
  Energy initial, next-to-last, final = 
        -18273.8028849     -18273.8029081     -18273.8029081
  Force two-norm initial, final = 0.00477859 0.00220919
  Force max component initial, final = 0.000376339 0.000332601
  Final line search alpha, max atom move = 0.00195312 6.49612e-07
  Iterations, force evaluations = 4 31

MPI task timing breakdown:
Section |  min time  |  avg time  |  max time  |%varavg| %total
---------------------------------------------------------------
Pair    | 0.032423   | 0.034832   | 0.038777   |   0.9 | 36.90
Kspace  | 0.04948    | 0.053758   | 0.05503    |   0.6 | 56.96
Neigh   | 0          | 0          | 0          |   0.0 |  0.00
Comm    | 0.0039649  | 0.0052392  | 0.006922   |   1.4 |  5.55
Output  | 2.2888e-05 | 2.3961e-05 | 3.2902e-05 |   0.1 |  0.03
Modify  | 0          | 0          | 0          |   0.0 |  0.00
Other   |            | 0.0005307  |            |       |  0.56

Nlocal:    84 ave 88 max 79 min
Histogram: 1 1 1 0 2 1 1 3 1 1
Nghost:    2601.33 ave 2626 max 2577 min
Histogram: 2 1 3 0 0 0 2 0 1 3
Neighs:    18632.7 ave 19339 max 17497 min
Histogram: 2 0 1 0 0 2 1 1 3 2

Total # of neighbors = 223592
Ave neighs/atom = 221.817
Neighbor list builds = 0
Dangerous builds = 0
  triclinic box = (-0.0194211 0 0) to (23.3201 23.3007 23.3007) with tilt (0 0 0)
WARNING: Resetting reneighboring criteria during minimization (../min.cpp:168)
Ewald initialization ...
  G vector (1/distance) = 0.365044
  estimated absolute RMS force accuracy = 1.94944e-05
  estimated relative force accuracy = 1.35381e-06
  KSpace vectors: actual max1d max3d = 2084 10 4630
                  kxmax kymax kzmax  = 10 10 10
Memory usage per processor = 4.56229 Mbytes
Step Temp E_pair E_mol TotEng Press 
      52           10   -18273.639            0   -18272.337   -10359.842 
      61           10   -18273.656            0   -18272.355   -9266.1766 
Loop time of 0.199326 on 12 procs for 9 steps with 1008 atoms

98.2% CPU use with 12 MPI tasks x no OpenMP threads

Minimization stats:
  Stopping criterion = linesearch alpha is zero
  Energy initial, next-to-last, final = 
        -18273.6389278     -18273.6561551     -18273.6561551
  Force two-norm initial, final = 0.594188 0.120539
  Force max component initial, final = 0.0512667 0.017742
  Final line search alpha, max atom move = 4.76837e-07 8.46006e-09
  Iterations, force evaluations = 9 59

MPI task timing breakdown:
Section |  min time  |  avg time  |  max time  |%varavg| %total
---------------------------------------------------------------
Pair    | 0.060772   | 0.067307   | 0.073317   |   1.3 | 33.77
Kspace  | 0.10492    | 0.11217    | 0.11498    |   0.8 | 56.27
Neigh   | 0          | 0          | 0          |   0.0 |  0.00
Comm    | 0.014754   | 0.017632   | 0.021147   |   1.5 |  8.85
Output  | 0          | 0          | 0          |   0.0 |  0.00
Modify  | 0          | 0          | 0          |   0.0 |  0.00
Other   |            | 0.002216   |            |       |  1.11

Nlocal:    84 ave 88 max 79 min
Histogram: 1 1 1 0 2 1 1 3 1 1
Nghost:    2600.33 ave 2626 max 2575 min
Histogram: 2 2 2 0 0 0 2 0 1 3
Neighs:    18601.2 ave 19300 max 17473 min
Histogram: 2 0 1 0 0 2 1 1 3 2

Total # of neighbors = 223215
Ave neighs/atom = 221.443
Neighbor list builds = 0
Dangerous builds = 0
  triclinic box = (-0.0388306 0 0) to (23.3395 23.3007 23.3007) with tilt (0 0 0)
WARNING: Resetting reneighboring criteria during minimization (../min.cpp:168)
Ewald initialization ...
  G vector (1/distance) = 0.365032
  estimated absolute RMS force accuracy = 1.95788e-05
  estimated relative force accuracy = 1.35968e-06
  KSpace vectors: actual max1d max3d = 2084 10 4630
                  kxmax kymax kzmax  = 10 10 10
Memory usage per processor = 4.56229 Mbytes
Step Temp E_pair E_mol TotEng Press 
      61           10   -18273.395            0   -18272.093   -13801.227 
      79           10   -18273.462            0    -18272.16   -11408.688 
Loop time of 0.232407 on 12 procs for 18 steps with 1008 atoms

98.9% CPU use with 12 MPI tasks x no OpenMP threads

Minimization stats:
  Stopping criterion = linesearch alpha is zero
  Energy initial, next-to-last, final = 
        -18273.3948823     -18273.4619607     -18273.4619607
  Force two-norm initial, final = 1.18013 0.108859
  Force max component initial, final = 0.101478 0.00895245
  Final line search alpha, max atom move = 9.53674e-07 8.53772e-09
  Iterations, force evaluations = 18 75

MPI task timing breakdown:
Section |  min time  |  avg time  |  max time  |%varavg| %total
---------------------------------------------------------------
Pair    | 0.076617   | 0.083396   | 0.094096   |   1.4 | 35.88
Kspace  | 0.12034    | 0.13185    | 0.13615    |   1.0 | 56.73
Neigh   | 0          | 0          | 0          |   0.0 |  0.00
Comm    | 0.01272    | 0.015789   | 0.020488   |   1.9 |  6.79
Output  | 0          | 0          | 0          |   0.0 |  0.00
Modify  | 0          | 0          | 0          |   0.0 |  0.00
Other   |            | 0.001373   |            |       |  0.59

Nlocal:    84 ave 88 max 79 min
Histogram: 1 1 1 0 2 1 1 3 1 1
Nghost:    2597.92 ave 2623 max 2574 min
Histogram: 2 1 3 0 0 0 2 0 2 2
Neighs:    18572.2 ave 19271 max 17441 min
Histogram: 2 0 1 0 0 2 1 1 2 3

Total # of neighbors = 222866
Ave neighs/atom = 221.097
Neighbor list builds = 0
Dangerous builds = 0
  triclinic box = (-0.0582517 0 0) to (23.3589 23.3007 23.3007) with tilt (0 0 0)
WARNING: Resetting reneighboring criteria during minimization (../min.cpp:168)
Ewald initialization ...
  G vector (1/distance) = 0.365021
  estimated absolute RMS force accuracy = 1.96704e-05
  estimated relative force accuracy = 1.36604e-06
  KSpace vectors: actual max1d max3d = 2084 10 4630
                  kxmax kymax kzmax  = 10 10 10
Memory usage per processor = 4.56229 Mbytes
Step Temp E_pair E_mol TotEng Press 
      79           10    -18273.07            0   -18271.768   -17208.425 
     100           10   -18273.219            0   -18271.917   -13598.205 
     103           10    -18273.22            0   -18271.918   -13581.851 
Loop time of 0.261797 on 12 procs for 24 steps with 1008 atoms

99.9% CPU use with 12 MPI tasks x no OpenMP threads

Minimization stats:
  Stopping criterion = linesearch alpha is zero
  Energy initial, next-to-last, final = 
        -18273.0696553     -18273.2199827     -18273.2199827
  Force two-norm initial, final = 1.76 0.11006
  Force max component initial, final = 0.15077 0.0112299
  Final line search alpha, max atom move = 9.53674e-07 1.07097e-08
  Iterations, force evaluations = 24 87

MPI task timing breakdown:
Section |  min time  |  avg time  |  max time  |%varavg| %total
---------------------------------------------------------------
Pair    | 0.089768   | 0.097287   | 0.10965    |   1.6 | 37.16
Kspace  | 0.13598    | 0.14852    | 0.1525     |   1.1 | 56.73
Neigh   | 0          | 0          | 0          |   0.0 |  0.00
Comm    | 0.0099764  | 0.014188   | 0.018513   |   2.3 |  5.42
Output  | 2.5988e-05 | 2.8412e-05 | 3.6955e-05 |   0.1 |  0.01
Modify  | 0          | 0          | 0          |   0.0 |  0.00
Other   |            | 0.001778   |            |       |  0.68

Nlocal:    84 ave 88 max 79 min
Histogram: 1 1 1 0 2 1 1 3 1 1
Nghost:    2595.67 ave 2621 max 2572 min
Histogram: 2 2 2 0 0 0 2 0 1 3
Neighs:    18541.9 ave 19225 max 17415 min
Histogram: 2 0 1 0 0 2 1 1 2 3

Total # of neighbors = 222503
Ave neighs/atom = 220.737
Neighbor list builds = 0
Dangerous builds = 0
  triclinic box = (0 0.0582517 0) to (23.3007 23.2424 23.3007) with tilt (0 0 0)
WARNING: Resetting reneighboring criteria during minimization (../min.cpp:168)
Ewald initialization ...
  G vector (1/distance) = 0.365089
  estimated absolute RMS force accuracy = 1.92191e-05
  estimated relative force accuracy = 1.33469e-06
  KSpace vectors: actual max1d max3d = 2088 10 4630
                  kxmax kymax kzmax  = 10 10 10
Memory usage per processor = 4.56229 Mbytes
Step Temp E_pair E_mol TotEng Press 
     103           10   -18273.758            0   -18272.457    3805.4568 
     118           10   -18273.907            0   -18272.606    248.39687 
Loop time of 0.218558 on 12 procs for 15 steps with 1008 atoms

99.6% CPU use with 12 MPI tasks x no OpenMP threads

Minimization stats:
  Stopping criterion = linesearch alpha is zero
  Energy initial, next-to-last, final = 
        -18273.7584191     -18273.9072067     -18273.9072067
  Force two-norm initial, final = 1.7757 0.203376
  Force max component initial, final = 0.165871 0.0225281
  Final line search alpha, max atom move = 2.38419e-07 5.37112e-09
  Iterations, force evaluations = 15 73

MPI task timing breakdown:
Section |  min time  |  avg time  |  max time  |%varavg| %total
---------------------------------------------------------------
Pair    | 0.075353   | 0.081738   | 0.091454   |   1.4 | 37.40
Kspace  | 0.11394    | 0.12377    | 0.12749    |   1.0 | 56.63
Neigh   | 0          | 0          | 0          |   0.0 |  0.00
Comm    | 0.0083575  | 0.011719   | 0.015337   |   2.2 |  5.36
Output  | 0          | 0          | 0          |   0.0 |  0.00
Modify  | 0          | 0          | 0          |   0.0 |  0.00
Other   |            | 0.001327   |            |       |  0.61

Nlocal:    84 ave 88 max 79 min
Histogram: 1 1 1 0 2 1 1 3 1 1
Nghost:    2615.17 ave 2641 max 2589 min
Histogram: 1 1 3 0 1 2 0 1 1 2
Neighs:    18728 ave 19435 max 17593 min
Histogram: 2 0 1 0 0 2 1 1 3 2

Total # of neighbors = 224736
Ave neighs/atom = 222.952
Neighbor list builds = 0
Dangerous builds = 0
  triclinic box = (0 0.0388306 0) to (23.3007 23.2618 23.3007) with tilt (0 0 0)
WARNING: Resetting reneighboring criteria during minimization (../min.cpp:168)
Ewald initialization ...
  G vector (1/distance) = 0.365078
  estimated absolute RMS force accuracy = 1.92793e-05
  estimated relative force accuracy = 1.33888e-06
  KSpace vectors: actual max1d max3d = 2084 10 4630
                  kxmax kymax kzmax  = 10 10 10
Memory usage per processor = 4.56229 Mbytes
Step Temp E_pair E_mol TotEng Press 
     118           10   -18273.861            0   -18272.559    204.25793 
     131           10   -18273.926            0   -18272.625   -2111.2219 
Loop time of 0.205293 on 12 procs for 13 steps with 1008 atoms

99.8% CPU use with 12 MPI tasks x no OpenMP threads

Minimization stats:
  Stopping criterion = linesearch alpha is zero
  Energy initial, next-to-last, final = 
        -18273.8607422     -18273.9262085     -18273.9262085
  Force two-norm initial, final = 1.17657 0.169979
  Force max component initial, final = 0.109669 0.0237766
  Final line search alpha, max atom move = 2.38419e-07 5.66879e-09
  Iterations, force evaluations = 13 69

MPI task timing breakdown:
Section |  min time  |  avg time  |  max time  |%varavg| %total
---------------------------------------------------------------
Pair    | 0.071172   | 0.077315   | 0.08552    |   1.3 | 37.66
Kspace  | 0.10715    | 0.11567    | 0.11862    |   0.9 | 56.34
Neigh   | 0          | 0          | 0          |   0.0 |  0.00
Comm    | 0.0079572  | 0.011076   | 0.014272   |   2.1 |  5.40
Output  | 0          | 0          | 0          |   0.0 |  0.00
Modify  | 0          | 0          | 0          |   0.0 |  0.00
Other   |            | 0.001231   |            |       |  0.60

Nlocal:    84 ave 88 max 79 min
Histogram: 1 1 1 0 2 1 1 3 1 1
Nghost:    2612.5 ave 2636 max 2589 min
Histogram: 2 1 2 1 0 1 1 0 2 2
Neighs:    18698.4 ave 19409 max 17565 min
Histogram: 2 0 1 0 0 2 1 1 3 2

Total # of neighbors = 224381
Ave neighs/atom = 222.6
Neighbor list builds = 0
Dangerous builds = 0
  triclinic box = (0 0.0194211 0) to (23.3007 23.2813 23.3007) with tilt (0 0 0)
WARNING: Resetting reneighboring criteria during minimization (../min.cpp:168)
Ewald initialization ...
  G vector (1/distance) = 0.365066
  estimated absolute RMS force accuracy = 1.9345e-05
  estimated relative force accuracy = 1.34344e-06
  KSpace vectors: actual max1d max3d = 2084 10 4630
                  kxmax kymax kzmax  = 10 10 10
Memory usage per processor = 4.56229 Mbytes
Step Temp E_pair E_mol TotEng Press 
     131           10   -18273.872            0    -18272.57   -3355.1905 
     145           10    -18273.89            0   -18272.588   -4514.4886 
Loop time of 0.218723 on 12 procs for 14 steps with 1008 atoms

99.7% CPU use with 12 MPI tasks x no OpenMP threads

Minimization stats:
  Stopping criterion = linesearch alpha is zero
  Energy initial, next-to-last, final = 
        -18273.8717796     -18273.8896861     -18273.8896861
  Force two-norm initial, final = 0.584432 0.0755382
  Force max component initial, final = 0.054392 0.0110484
  Final line search alpha, max atom move = 1.90735e-06 2.10732e-08
  Iterations, force evaluations = 14 73

MPI task timing breakdown:
Section |  min time  |  avg time  |  max time  |%varavg| %total
---------------------------------------------------------------
Pair    | 0.075819   | 0.081942   | 0.092032   |   1.4 | 37.46
Kspace  | 0.11371    | 0.12389    | 0.12732    |   1.0 | 56.64
Neigh   | 0          | 0          | 0          |   0.0 |  0.00
Comm    | 0.0079854  | 0.011549   | 0.015254   |   2.2 |  5.28
Output  | 0          | 0          | 0          |   0.0 |  0.00
Modify  | 0          | 0          | 0          |   0.0 |  0.00
Other   |            | 0.00134    |            |       |  0.61

Nlocal:    84 ave 88 max 79 min
Histogram: 1 1 1 0 2 1 1 3 1 1
Nghost:    2604.83 ave 2628 max 2579 min
Histogram: 1 2 1 2 0 0 2 0 1 3
Neighs:    18666.8 ave 19366 max 17536 min
Histogram: 2 0 1 0 0 2 1 1 2 3

Total # of neighbors = 224001
Ave neighs/atom = 222.223
Neighbor list builds = 0
Dangerous builds = 0
  triclinic box = (0 0 0) to (23.3007 23.3007 23.3007) with tilt (0 0 0)
WARNING: Resetting reneighboring criteria during minimization (../min.cpp:168)
Ewald initialization ...
  G vector (1/distance) = 0.365055
  estimated absolute RMS force accuracy = 1.94166e-05
  estimated relative force accuracy = 1.34841e-06
  KSpace vectors: actual max1d max3d = 2084 10 4630
                  kxmax kymax kzmax  = 10 10 10
Memory usage per processor = 4.56229 Mbytes
Step Temp E_pair E_mol TotEng Press 
     145           10   -18273.803            0   -18272.501   -6879.9656 
     149           10   -18273.803            0   -18272.501   -6874.1217 
Loop time of 0.094668 on 12 procs for 4 steps with 1008 atoms

99.5% CPU use with 12 MPI tasks x no OpenMP threads

Minimization stats:
  Stopping criterion = linesearch alpha is zero
  Energy initial, next-to-last, final = 
        -18273.8028849     -18273.8029081     -18273.8029081
  Force two-norm initial, final = 0.00477859 0.00220919
  Force max component initial, final = 0.000376339 0.000332601
  Final line search alpha, max atom move = 0.00195312 6.49612e-07
  Iterations, force evaluations = 4 31

MPI task timing breakdown:
Section |  min time  |  avg time  |  max time  |%varavg| %total
---------------------------------------------------------------
Pair    | 0.03237    | 0.035099   | 0.040009   |   1.0 | 37.08
Kspace  | 0.0491     | 0.054047   | 0.055457   |   0.7 | 57.09
Neigh   | 0          | 0          | 0          |   0.0 |  0.00
Comm    | 0.0033374  | 0.004906   | 0.0065289  |   1.4 |  5.18
Output  | 0          | 0          | 0          |   0.0 |  0.00
Modify  | 0          | 0          | 0          |   0.0 |  0.00
Other   |            | 0.000616   |            |       |  0.65

Nlocal:    84 ave 88 max 79 min
Histogram: 1 1 1 0 2 1 1 3 1 1
Nghost:    2601.33 ave 2626 max 2577 min
Histogram: 2 1 3 0 0 0 2 0 1 3
Neighs:    18632.7 ave 19339 max 17497 min
Histogram: 2 0 1 0 0 2 1 1 3 2

Total # of neighbors = 223592
Ave neighs/atom = 221.817
Neighbor list builds = 0
Dangerous builds = 0
  triclinic box = (0 -0.0194211 0) to (23.3007 23.3201 23.3007) with tilt (0 0 0)
WARNING: Resetting reneighboring criteria during minimization (../min.cpp:168)
Ewald initialization ...
  G vector (1/distance) = 0.365044
  estimated absolute RMS force accuracy = 1.94944e-05
  estimated relative force accuracy = 1.35381e-06
  KSpace vectors: actual max1d max3d = 2084 10 4630
                  kxmax kymax kzmax  = 10 10 10
Memory usage per processor = 4.56229 Mbytes
Step Temp E_pair E_mol TotEng Press 
     149           10    -18273.65            0   -18272.349   -10367.137 
     150           10   -18273.655            0   -18272.354   -10017.255 
     167           10   -18273.667            0   -18272.365   -9167.7733 
Loop time of 0.242406 on 12 procs for 18 steps with 1008 atoms

99.3% CPU use with 12 MPI tasks x no OpenMP threads

Minimization stats:
  Stopping criterion = linesearch alpha is zero
  Energy initial, next-to-last, final = 
        -18273.6502373     -18273.6669943     -18273.6669943
  Force two-norm initial, final = 0.580876 0.0585347
  Force max component initial, final = 0.0534631 0.00781006
  Final line search alpha, max atom move = 1.90735e-06 1.48965e-08
  Iterations, force evaluations = 18 73

MPI task timing breakdown:
Section |  min time  |  avg time  |  max time  |%varavg| %total
---------------------------------------------------------------
Pair    | 0.074975   | 0.082848   | 0.091064   |   1.5 | 34.18
Kspace  | 0.1288     | 0.13778    | 0.14161    |   0.9 | 56.84
Neigh   | 0          | 0          | 0          |   0.0 |  0.00
Comm    | 0.015563   | 0.020051   | 0.023993   |   1.7 |  8.27
Output  | 2.3842e-05 | 2.4915e-05 | 3.2902e-05 |   0.0 |  0.01
Modify  | 0          | 0          | 0          |   0.0 |  0.00
Other   |            | 0.001705   |            |       |  0.70

Nlocal:    84 ave 88 max 79 min
Histogram: 1 1 1 0 2 1 1 3 1 1
Nghost:    2599.83 ave 2625 max 2576 min
Histogram: 2 1 3 0 0 2 0 0 1 3
Neighs:    18600.7 ave 19302 max 17461 min
Histogram: 2 0 1 0 0 2 1 1 3 2

Total # of neighbors = 223208
Ave neighs/atom = 221.437
Neighbor list builds = 0
Dangerous builds = 0
  triclinic box = (0 -0.0388306 0) to (23.3007 23.3395 23.3007) with tilt (0 0 0)
WARNING: Resetting reneighboring criteria during minimization (../min.cpp:168)
Ewald initialization ...
  G vector (1/distance) = 0.365032
  estimated absolute RMS force accuracy = 1.95788e-05
  estimated relative force accuracy = 1.35968e-06
  KSpace vectors: actual max1d max3d = 2084 10 4630
                  kxmax kymax kzmax  = 10 10 10
Memory usage per processor = 4.56229 Mbytes
Step Temp E_pair E_mol TotEng Press 
     167           10   -18273.415            0   -18272.113   -13815.056 
     184           10   -18273.482            0    -18272.18   -11455.384 
Loop time of 0.229248 on 12 procs for 17 steps with 1008 atoms

99.8% CPU use with 12 MPI tasks x no OpenMP threads

Minimization stats:
  Stopping criterion = linesearch alpha is zero
  Energy initial, next-to-last, final = 
        -18273.4147148     -18273.4816923     -18273.4816923
  Force two-norm initial, final = 1.1535 0.125907
  Force max component initial, final = 0.105946 0.0152183
  Final line search alpha, max atom move = 4.76837e-07 7.25665e-09
  Iterations, force evaluations = 17 75

MPI task timing breakdown:
Section |  min time  |  avg time  |  max time  |%varavg| %total
---------------------------------------------------------------
Pair    | 0.076877   | 0.085022   | 0.094955   |   1.5 | 37.09
Kspace  | 0.1186     | 0.12972    | 0.13342    |   1.0 | 56.59
Neigh   | 0          | 0          | 0          |   0.0 |  0.00
Comm    | 0.0090947  | 0.013011   | 0.017383   |   2.3 |  5.68
Output  | 0          | 0          | 0          |   0.0 |  0.00
Modify  | 0          | 0          | 0          |   0.0 |  0.00
Other   |            | 0.001494   |            |       |  0.65

Nlocal:    84 ave 88 max 79 min
Histogram: 1 1 1 0 2 1 1 3 1 1
Nghost:    2597.83 ave 2622 max 2575 min
Histogram: 2 2 2 0 0 1 1 0 1 3
Neighs:    18570.2 ave 19268 max 17434 min
Histogram: 2 0 1 0 0 2 1 1 3 2

Total # of neighbors = 222842
Ave neighs/atom = 221.073
Neighbor list builds = 0
Dangerous builds = 0
  triclinic box = (0 -0.0582517 0) to (23.3007 23.3589 23.3007) with tilt (0 0 0)
WARNING: Resetting reneighboring criteria during minimization (../min.cpp:168)
Ewald initialization ...
  G vector (1/distance) = 0.365021
  estimated absolute RMS force accuracy = 1.96704e-05
  estimated relative force accuracy = 1.36604e-06
  KSpace vectors: actual max1d max3d = 2084 10 4630
                  kxmax kymax kzmax  = 10 10 10
Memory usage per processor = 4.56229 Mbytes
Step Temp E_pair E_mol TotEng Press 
     184           10   -18273.095            0   -18271.793   -17227.629 
     200           10    -18273.24            0   -18271.939   -13713.836 
     207           10   -18273.244            0   -18271.942   -13625.801 
Loop time of 0.261395 on 12 procs for 23 steps with 1008 atoms

99.8% CPU use with 12 MPI tasks x no OpenMP threads

Minimization stats:
  Stopping criterion = linesearch alpha is zero
  Energy initial, next-to-last, final = 
        -18273.0949917     -18273.2439387     -18273.2439387
  Force two-norm initial, final = 1.72022 0.121277
  Force max component initial, final = 0.157471 0.00994592
  Final line search alpha, max atom move = 4.76837e-07 4.74259e-09
  Iterations, force evaluations = 23 87

MPI task timing breakdown:
Section |  min time  |  avg time  |  max time  |%varavg| %total
---------------------------------------------------------------
Pair    | 0.088926   | 0.09676    | 0.10956    |   1.6 | 37.02
Kspace  | 0.13576    | 0.14938    | 0.15359    |   1.2 | 57.15
Neigh   | 0          | 0          | 0          |   0.0 |  0.00
Comm    | 0.0097384  | 0.013745   | 0.018179   |   2.4 |  5.26
Output  | 2.3842e-05 | 2.4815e-05 | 3.2902e-05 |   0.0 |  0.01
Modify  | 0          | 0          | 0          |   0.0 |  0.00
Other   |            | 0.001481   |            |       |  0.57

Nlocal:    84 ave 88 max 79 min
Histogram: 1 1 1 0 2 1 1 3 1 1
Nghost:    2593.17 ave 2615 max 2568 min
Histogram: 1 3 0 2 0 0 1 1 0 4
Neighs:    18537.2 ave 19229 max 17402 min
Histogram: 2 0 1 0 0 2 1 1 2 3

Total # of neighbors = 222446
Ave neighs/atom = 220.681
Neighbor list builds = 0
Dangerous builds = 0
  triclinic box = (0 0 0.0582517) to (23.3007 23.3007 23.2424) with tilt (0 0 0)
WARNING: Resetting reneighboring criteria during minimization (../min.cpp:168)
Ewald initialization ...
  G vector (1/distance) = 0.365089
  estimated absolute RMS force accuracy = 1.92191e-05
  estimated relative force accuracy = 1.33469e-06
  KSpace vectors: actual max1d max3d = 2088 10 4630
                  kxmax kymax kzmax  = 10 10 10
Memory usage per processor = 4.56229 Mbytes
Step Temp E_pair E_mol TotEng Press 
     207           10   -18273.823            0   -18272.522     3670.651 
     224           10   -18273.976            0   -18272.674   -60.177989 
Loop time of 0.229266 on 12 procs for 17 steps with 1008 atoms

99.9% CPU use with 12 MPI tasks x no OpenMP threads

Minimization stats:
  Stopping criterion = linesearch alpha is zero
  Energy initial, next-to-last, final = 
        -18273.8232278     -18273.9757357     -18273.9757357
  Force two-norm initial, final = 1.87319 0.219328
  Force max component initial, final = 0.156105 0.0270512
  Final line search alpha, max atom move = 2.31155e-07 6.25302e-09
  Iterations, force evaluations = 17 77

MPI task timing breakdown:
Section |  min time  |  avg time  |  max time  |%varavg| %total
---------------------------------------------------------------
Pair    | 0.079659   | 0.085572   | 0.096548   |   1.6 | 37.32
Kspace  | 0.11983    | 0.1307     | 0.13406    |   1.0 | 57.01
Neigh   | 0          | 0          | 0          |   0.0 |  0.00
Comm    | 0.0079582  | 0.01178    | 0.015832   |   2.3 |  5.14
Output  | 0          | 0          | 0          |   0.0 |  0.00
Modify  | 0          | 0          | 0          |   0.0 |  0.00
Other   |            | 0.001211   |            |       |  0.53

Nlocal:    84 ave 88 max 79 min
Histogram: 1 1 1 0 2 1 1 3 1 1
Nghost:    2609.08 ave 2631 max 2583 min
Histogram: 1 1 3 1 0 0 1 1 1 3
Neighs:    18725.8 ave 19436 max 17583 min
Histogram: 2 0 1 0 0 2 1 1 3 2

Total # of neighbors = 224709
Ave neighs/atom = 222.926
Neighbor list builds = 0
Dangerous builds = 0
  triclinic box = (0 0 0.0388306) to (23.3007 23.3007 23.2618) with tilt (0 0 0)
WARNING: Resetting reneighboring criteria during minimization (../min.cpp:168)
Ewald initialization ...
  G vector (1/distance) = 0.365078
  estimated absolute RMS force accuracy = 1.92793e-05
  estimated relative force accuracy = 1.33888e-06
  KSpace vectors: actual max1d max3d = 2084 10 4630
                  kxmax kymax kzmax  = 10 10 10
Memory usage per processor = 4.56229 Mbytes
Step Temp E_pair E_mol TotEng Press 
     224           10   -18273.902            0     -18272.6    115.46702 
     246           10   -18273.969            0   -18272.668   -2420.7871 
Loop time of 0.37208 on 12 procs for 22 steps with 1008 atoms

99.7% CPU use with 12 MPI tasks x no OpenMP threads

Minimization stats:
  Stopping criterion = linesearch alpha is zero
  Energy initial, next-to-last, final = 
        -18273.9019353     -18273.9692106     -18273.9692106
  Force two-norm initial, final = 1.24118 0.115607
  Force max component initial, final = 0.10313 0.0123875
  Final line search alpha, max atom move = 4.76837e-07 5.90684e-09
  Iterations, force evaluations = 22 123

MPI task timing breakdown:
Section |  min time  |  avg time  |  max time  |%varavg| %total
---------------------------------------------------------------
Pair    | 0.12811    | 0.13875    | 0.15617    |   1.9 | 37.29
Kspace  | 0.19203    | 0.21076    | 0.21802    |   1.4 | 56.64
Neigh   | 0          | 0          | 0          |   0.0 |  0.00
Comm    | 0.014594   | 0.020321   | 0.026699   |   2.8 |  5.46
Output  | 0          | 0          | 0          |   0.0 |  0.00
Modify  | 0          | 0          | 0          |   0.0 |  0.00
Other   |            | 0.002249   |            |       |  0.60

Nlocal:    84 ave 88 max 79 min
Histogram: 1 1 1 0 2 1 1 3 1 1
Nghost:    2606.33 ave 2629 max 2582 min
Histogram: 1 3 1 1 0 0 1 1 1 3
Neighs:    18694.5 ave 19398 max 17557 min
Histogram: 2 0 1 0 0 2 1 1 3 2

Total # of neighbors = 224334
Ave neighs/atom = 222.554
Neighbor list builds = 0
Dangerous builds = 0
  triclinic box = (0 0 0.0194211) to (23.3007 23.3007 23.2813) with tilt (0 0 0)
WARNING: Resetting reneighboring criteria during minimization (../min.cpp:168)
Ewald initialization ...
  G vector (1/distance) = 0.365066
  estimated absolute RMS force accuracy = 1.9345e-05
  estimated relative force accuracy = 1.34344e-06
  KSpace vectors: actual max1d max3d = 2084 10 4630
                  kxmax kymax kzmax  = 10 10 10
Memory usage per processor = 4.56229 Mbytes
Step Temp E_pair E_mol TotEng Press 
     246           10   -18273.895            0   -18272.594   -3400.0858 
     250           10   -18273.908            0   -18272.607   -4247.8996 
     256           10   -18273.911            0   -18272.609   -4519.7344 
Loop time of 0.246193 on 12 procs for 10 steps with 1008 atoms

99.7% CPU use with 12 MPI tasks x no OpenMP threads

Minimization stats:
  Stopping criterion = linesearch alpha is zero
  Energy initial, next-to-last, final = 
        -18273.8954232     -18273.9108891     -18273.9108891
  Force two-norm initial, final = 0.616577 0.111726
  Force max component initial, final = 0.0510936 0.011408
  Final line search alpha, max atom move = 9.53674e-07 1.08796e-08
  Iterations, force evaluations = 10 81

MPI task timing breakdown:
Section |  min time  |  avg time  |  max time  |%varavg| %total
---------------------------------------------------------------
Pair    | 0.083531   | 0.091838   | 0.10153    |   1.5 | 37.30
Kspace  | 0.12783    | 0.13904    | 0.14337    |   1.1 | 56.48
Neigh   | 0          | 0          | 0          |   0.0 |  0.00
Comm    | 0.0092664  | 0.013874   | 0.018818   |   2.4 |  5.64
Output  | 2.4796e-05 | 2.5551e-05 | 3.3855e-05 |   0.0 |  0.01
Modify  | 0          | 0          | 0          |   0.0 |  0.00
Other   |            | 0.001411   |            |       |  0.57

Nlocal:    84 ave 88 max 79 min
Histogram: 1 1 1 0 2 1 1 3 1 1
Nghost:    2604.33 ave 2627 max 2581 min
Histogram: 1 4 0 1 0 0 2 0 1 3
Neighs:    18662.4 ave 19363 max 17527 min
Histogram: 2 0 1 0 0 2 1 1 3 2

Total # of neighbors = 223949
Ave neighs/atom = 222.172
Neighbor list builds = 0
Dangerous builds = 0
  triclinic box = (0 0 0) to (23.3007 23.3007 23.3007) with tilt (0 0 0)
WARNING: Resetting reneighboring criteria during minimization (../min.cpp:168)
Ewald initialization ...
  G vector (1/distance) = 0.365055
  estimated absolute RMS force accuracy = 1.94166e-05
  estimated relative force accuracy = 1.34841e-06
  KSpace vectors: actual max1d max3d = 2084 10 4630
                  kxmax kymax kzmax  = 10 10 10
Memory usage per processor = 4.56229 Mbytes
Step Temp E_pair E_mol TotEng Press 
     256           10   -18273.803            0   -18272.501   -6879.9656 
     260           10   -18273.803            0   -18272.501   -6874.1217 
Loop time of 0.09451 on 12 procs for 4 steps with 1008 atoms

100.3% CPU use with 12 MPI tasks x no OpenMP threads

Minimization stats:
  Stopping criterion = linesearch alpha is zero
  Energy initial, next-to-last, final = 
        -18273.8028849     -18273.8029081     -18273.8029081
  Force two-norm initial, final = 0.00477859 0.00220919
  Force max component initial, final = 0.000376339 0.000332601
  Final line search alpha, max atom move = 0.00195312 6.49612e-07
  Iterations, force evaluations = 4 31

MPI task timing breakdown:
Section |  min time  |  avg time  |  max time  |%varavg| %total
---------------------------------------------------------------
Pair    | 0.032514   | 0.035236   | 0.039638   |   0.9 | 37.28
Kspace  | 0.04921    | 0.053822   | 0.055023   |   0.6 | 56.95
Neigh   | 0          | 0          | 0          |   0.0 |  0.00
Comm    | 0.0035944  | 0.0049634  | 0.0064557  |   1.4 |  5.25
Output  | 0          | 0          | 0          |   0.0 |  0.00
Modify  | 0          | 0          | 0          |   0.0 |  0.00
Other   |            | 0.0004894  |            |       |  0.52

Nlocal:    84 ave 88 max 79 min
Histogram: 1 1 1 0 2 1 1 3 1 1
Nghost:    2601.33 ave 2626 max 2577 min
Histogram: 2 1 3 0 0 0 2 0 1 3
Neighs:    18632.7 ave 19339 max 17497 min
Histogram: 2 0 1 0 0 2 1 1 3 2

Total # of neighbors = 223592
Ave neighs/atom = 221.817
Neighbor list builds = 0
Dangerous builds = 0
  triclinic box = (0 0 -0.0194211) to (23.3007 23.3007 23.3201) with tilt (0 0 0)
WARNING: Resetting reneighboring criteria during minimization (../min.cpp:168)
Ewald initialization ...
  G vector (1/distance) = 0.365044
  estimated absolute RMS force accuracy = 1.94944e-05
  estimated relative force accuracy = 1.35381e-06
  KSpace vectors: actual max1d max3d = 2084 10 4630
                  kxmax kymax kzmax  = 10 10 10
Memory usage per processor = 4.56229 Mbytes
Step Temp E_pair E_mol TotEng Press 
     260           10   -18273.635            0   -18272.333   -10324.867 
     269           10   -18273.649            0   -18272.348   -9222.1246 
Loop time of 0.17515 on 12 procs for 9 steps with 1008 atoms

99.8% CPU use with 12 MPI tasks x no OpenMP threads

Minimization stats:
  Stopping criterion = linesearch alpha is zero
  Energy initial, next-to-last, final = 
         -18273.634833     -18273.6492623     -18273.6492623
  Force two-norm initial, final = 0.612691 0.125221
  Force max component initial, final = 0.050409 0.0123486
  Final line search alpha, max atom move = 4.76837e-07 5.88825e-09
  Iterations, force evaluations = 9 59

MPI task timing breakdown:
Section |  min time  |  avg time  |  max time  |%varavg| %total
---------------------------------------------------------------
Pair    | 0.060923   | 0.065265   | 0.073623   |   1.3 | 37.26
Kspace  | 0.091709   | 0.10011    | 0.10225    |   0.9 | 57.15
Neigh   | 0          | 0          | 0          |   0.0 |  0.00
Comm    | 0.006005   | 0.0088727  | 0.011918   |   2.0 |  5.07
Output  | 0          | 0          | 0          |   0.0 |  0.00
Modify  | 0          | 0          | 0          |   0.0 |  0.00
Other   |            | 0.0009075  |            |       |  0.52

Nlocal:    84 ave 88 max 79 min
Histogram: 1 1 1 0 2 1 1 3 1 1
Nghost:    2599.33 ave 2624 max 2576 min
Histogram: 3 2 1 0 0 0 2 0 1 3
Neighs:    18601 ave 19302 max 17464 min
Histogram: 2 0 1 0 0 2 1 1 3 2

Total # of neighbors = 223212
Ave neighs/atom = 221.44
Neighbor list builds = 0
Dangerous builds = 0
  triclinic box = (0 0 -0.0388306) to (23.3007 23.3007 23.3395) with tilt (0 0 0)
WARNING: Resetting reneighboring criteria during minimization (../min.cpp:168)
Ewald initialization ...
  G vector (1/distance) = 0.365032
  estimated absolute RMS force accuracy = 1.95788e-05
  estimated relative force accuracy = 1.35968e-06
  KSpace vectors: actual max1d max3d = 2084 10 4630
                  kxmax kymax kzmax  = 10 10 10
Memory usage per processor = 4.56229 Mbytes
Step Temp E_pair E_mol TotEng Press 
     269           10   -18273.384            0   -18272.082   -13730.945 
     297           10   -18273.454            0   -18272.153   -11150.253 
Loop time of 0.415889 on 12 procs for 28 steps with 1008 atoms

99.8% CPU use with 12 MPI tasks x no OpenMP threads

Minimization stats:
  Stopping criterion = linesearch alpha is zero
  Energy initial, next-to-last, final = 
        -18273.3836994      -18273.454201      -18273.454201
  Force two-norm initial, final = 1.21685 0.143063
  Force max component initial, final = 0.0998398 0.0151126
  Final line search alpha, max atom move = 3.98019e-07 6.01509e-09
  Iterations, force evaluations = 28 137

MPI task timing breakdown:
Section |  min time  |  avg time  |  max time  |%varavg| %total
---------------------------------------------------------------
Pair    | 0.1397     | 0.15329    | 0.17681    |   2.3 | 36.86
Kspace  | 0.2126     | 0.23804    | 0.24387    |   1.7 | 57.24
Neigh   | 0          | 0          | 0          |   0.0 |  0.00
Comm    | 0.015429   | 0.022348   | 0.029964   |   3.1 |  5.37
Output  | 0          | 0          | 0          |   0.0 |  0.00
Modify  | 0          | 0          | 0          |   0.0 |  0.00
Other   |            | 0.002217   |            |       |  0.53

Nlocal:    84 ave 88 max 79 min
Histogram: 1 1 1 0 2 1 1 3 1 1
Nghost:    2594.83 ave 2623 max 2572 min
Histogram: 4 1 1 0 0 1 1 0 2 2
Neighs:    18570.3 ave 19262 max 17431 min
Histogram: 2 0 1 0 0 2 1 1 2 3

Total # of neighbors = 222844
Ave neighs/atom = 221.075
Neighbor list builds = 0
Dangerous builds = 0
  triclinic box = (0 0 -0.0582517) to (23.3007 23.3007 23.3589) with tilt (0 0 0)
WARNING: Resetting reneighboring criteria during minimization (../min.cpp:168)
Ewald initialization ...
  G vector (1/distance) = 0.365021
  estimated absolute RMS force accuracy = 1.96704e-05
  estimated relative force accuracy = 1.36604e-06
  KSpace vectors: actual max1d max3d = 2084 10 4630
                  kxmax kymax kzmax  = 10 10 10
Memory usage per processor = 4.56229 Mbytes
Step Temp E_pair E_mol TotEng Press 
     297           10   -18273.049            0   -18271.747    -17102.33 
     300           10   -18273.152            0    -18271.85   -14814.677 
     320           10   -18273.204            0   -18271.902   -13316.275 
Loop time of 0.265928 on 12 procs for 23 steps with 1008 atoms

99.8% CPU use with 12 MPI tasks x no OpenMP threads

Minimization stats:
  Stopping criterion = linesearch alpha is zero
  Energy initial, next-to-last, final = 
        -18273.0486365     -18273.2040891     -18273.2040891
  Force two-norm initial, final = 1.8148 0.218144
  Force max component initial, final = 0.148448 0.0238312
  Final line search alpha, max atom move = 1.45546e-07 3.46853e-09
  Iterations, force evaluations = 23 89

MPI task timing breakdown:
Section |  min time  |  avg time  |  max time  |%varavg| %total
---------------------------------------------------------------
Pair    | 0.090776   | 0.098529   | 0.11207    |   1.7 | 37.05
Kspace  | 0.13802    | 0.1522     | 0.15581    |   1.2 | 57.23
Neigh   | 0          | 0          | 0          |   0.0 |  0.00
Comm    | 0.0098433  | 0.013722   | 0.018093   |   2.4 |  5.16
Output  | 2.1935e-05 | 2.3166e-05 | 3.0041e-05 |   0.0 |  0.01
Modify  | 0          | 0          | 0          |   0.0 |  0.00
Other   |            | 0.001458   |            |       |  0.55

Nlocal:    84 ave 88 max 79 min
Histogram: 1 1 1 0 2 1 1 3 1 1
Nghost:    2592.08 ave 2623 max 2567 min
Histogram: 3 2 1 0 0 2 0 1 2 1
Neighs:    18539.6 ave 19217 max 17406 min
Histogram: 2 0 1 0 0 2 1 1 2 3

Total # of neighbors = 222475
Ave neighs/atom = 220.709
Neighbor list builds = 0
Dangerous builds = 0
  triclinic box = (0 0 0) to (23.3007 23.3007 23.3007) with tilt (-0.116503 0 0)
WARNING: Resetting reneighboring criteria during minimization (../min.cpp:168)
Ewald initialization ...
  G vector (1/distance) = 0.365055
  estimated absolute RMS force accuracy = 1.94166e-05
  estimated relative force accuracy = 1.34841e-06
  KSpace vectors: actual max1d max3d = 2079 10 4630
                  kxmax kymax kzmax  = 10 10 10
Memory usage per processor = 4.56229 Mbytes
Step Temp E_pair E_mol TotEng Press 
     320           10    -18273.56            0   -18272.259   -6833.0255 
     334           10   -18273.621            0   -18272.319   -6758.9181 
Loop time of 0.206313 on 12 procs for 14 steps with 1008 atoms

99.7% CPU use with 12 MPI tasks x no OpenMP threads

Minimization stats:
  Stopping criterion = linesearch alpha is zero
  Energy initial, next-to-last, final = 
        -18273.5603808      -18273.620565      -18273.620565
  Force two-norm initial, final = 1.23345 0.153889
  Force max component initial, final = 0.126347 0.0150728
  Final line search alpha, max atom move = 4.76837e-07 7.18727e-09
  Iterations, force evaluations = 14 69

MPI task timing breakdown:
Section |  min time  |  avg time  |  max time  |%varavg| %total
---------------------------------------------------------------
Pair    | 0.071044   | 0.076843   | 0.087215   |   1.5 | 37.25
Kspace  | 0.10717    | 0.11762    | 0.12109    |   1.0 | 57.01
Neigh   | 0          | 0          | 0          |   0.0 |  0.00
Comm    | 0.0073671  | 0.010641   | 0.014186   |   2.1 |  5.16
Output  | 0          | 0          | 0          |   0.0 |  0.00
Modify  | 0          | 0          | 0          |   0.0 |  0.00
Other   |            | 0.001211   |            |       |  0.59

Nlocal:    84 ave 88 max 79 min
Histogram: 1 1 1 0 2 1 1 3 1 1
Nghost:    2601.33 ave 2626 max 2577 min
Histogram: 2 1 3 0 0 0 2 0 1 3
Neighs:    18632.9 ave 19323 max 17501 min
Histogram: 2 0 1 0 0 2 1 1 1 4

Total # of neighbors = 223595
Ave neighs/atom = 221.82
Neighbor list builds = 0
Dangerous builds = 0
  triclinic box = (0 0 0) to (23.3007 23.3007 23.3007) with tilt (-0.077661 0 0)
WARNING: Resetting reneighboring criteria during minimization (../min.cpp:168)
Ewald initialization ...
  G vector (1/distance) = 0.365055
  estimated absolute RMS force accuracy = 1.94166e-05
  estimated relative force accuracy = 1.34841e-06
  KSpace vectors: actual max1d max3d = 2081 10 4630
                  kxmax kymax kzmax  = 10 10 10
Memory usage per processor = 4.56229 Mbytes
Step Temp E_pair E_mol TotEng Press 
     334           10    -18273.67            0   -18272.368   -6853.4451 
     349           10   -18273.697            0   -18272.396   -6791.9397 
Loop time of 0.208037 on 12 procs for 15 steps with 1008 atoms

99.8% CPU use with 12 MPI tasks x no OpenMP threads

Minimization stats:
  Stopping criterion = linesearch alpha is zero
  Energy initial, next-to-last, final = 
         -18273.669942      -18273.697498      -18273.697498
  Force two-norm initial, final = 0.822233 0.10002
  Force max component initial, final = 0.0841378 0.00809241
  Final line search alpha, max atom move = 9.53674e-07 7.71752e-09
  Iterations, force evaluations = 15 69

MPI task timing breakdown:
Section |  min time  |  avg time  |  max time  |%varavg| %total
---------------------------------------------------------------
Pair    | 0.071135   | 0.077683   | 0.08659    |   1.4 | 37.34
Kspace  | 0.10844    | 0.11773    | 0.12194    |   1.0 | 56.59
Neigh   | 0          | 0          | 0          |   0.0 |  0.00
Comm    | 0.0084093  | 0.011348   | 0.014719   |   2.1 |  5.46
Output  | 0          | 0          | 0          |   0.0 |  0.00
Modify  | 0          | 0          | 0          |   0.0 |  0.00
Other   |            | 0.001274   |            |       |  0.61

Nlocal:    84 ave 88 max 79 min
Histogram: 1 1 1 0 2 1 1 3 1 1
Nghost:    2601.33 ave 2626 max 2577 min
Histogram: 2 1 3 0 0 0 2 0 1 3
Neighs:    18631.7 ave 19327 max 17499 min
Histogram: 2 0 1 0 0 2 1 1 3 2

Total # of neighbors = 223580
Ave neighs/atom = 221.806
Neighbor list builds = 0
Dangerous builds = 0
  triclinic box = (0 0 0) to (23.3007 23.3007 23.3007) with tilt (-0.038842 0 0)
WARNING: Resetting reneighboring criteria during minimization (../min.cpp:168)
Ewald initialization ...
  G vector (1/distance) = 0.365055
  estimated absolute RMS force accuracy = 1.94166e-05
  estimated relative force accuracy = 1.34841e-06
  KSpace vectors: actual max1d max3d = 2082 10 4630
                  kxmax kymax kzmax  = 10 10 10
Memory usage per processor = 4.56229 Mbytes
Step Temp E_pair E_mol TotEng Press 
     349           10   -18273.751            0   -18272.449   -6869.1491 
     350           10   -18273.754            0   -18272.452   -6853.6445 
     357           10   -18273.758            0   -18272.456   -6841.5796 
Loop time of 0.168561 on 12 procs for 8 steps with 1008 atoms

99.8% CPU use with 12 MPI tasks x no OpenMP threads

Minimization stats:
  Stopping criterion = linesearch alpha is zero
  Energy initial, next-to-last, final = 
        -18273.7509901     -18273.7581103     -18273.7581103
  Force two-norm initial, final = 0.411309 0.0887738
  Force max component initial, final = 0.0420576 0.00939206
  Final line search alpha, max atom move = 9.53674e-07 8.95697e-09
  Iterations, force evaluations = 8 55

MPI task timing breakdown:
Section |  min time  |  avg time  |  max time  |%varavg| %total
---------------------------------------------------------------
Pair    | 0.056852   | 0.062645   | 0.068628   |   1.3 | 37.16
Kspace  | 0.087906   | 0.095393   | 0.097303   |   0.8 | 56.59
Neigh   | 0          | 0          | 0          |   0.0 |  0.00
Comm    | 0.0059912  | 0.009564   | 0.013422   |   2.2 |  5.67
Output  | 3.6001e-05 | 3.7154e-05 | 4.6015e-05 |   0.0 |  0.02
Modify  | 0          | 0          | 0          |   0.0 |  0.00
Other   |            | 0.000922   |            |       |  0.55

Nlocal:    84 ave 88 max 79 min
Histogram: 1 1 1 0 2 1 1 3 1 1
Nghost:    2601.33 ave 2626 max 2577 min
Histogram: 2 1 3 0 0 0 2 0 1 3
Neighs:    18631.6 ave 19334 max 17497 min
Histogram: 2 0 1 0 0 2 1 1 3 2

Total # of neighbors = 223579
Ave neighs/atom = 221.805
Neighbor list builds = 0
Dangerous builds = 0
  triclinic box = (0 0 0) to (23.3007 23.3007 23.3007) with tilt (0 0 0)
WARNING: Resetting reneighboring criteria during minimization (../min.cpp:168)
Ewald initialization ...
  G vector (1/distance) = 0.365055
  estimated absolute RMS force accuracy = 1.94166e-05
  estimated relative force accuracy = 1.34841e-06
  KSpace vectors: actual max1d max3d = 2084 10 4630
                  kxmax kymax kzmax  = 10 10 10
Memory usage per processor = 4.56229 Mbytes
Step Temp E_pair E_mol TotEng Press 
     357           10   -18273.803            0   -18272.501   -6879.9656 
     361           10   -18273.803            0   -18272.501   -6874.1217 
Loop time of 0.0946018 on 12 procs for 4 steps with 1008 atoms

99.9% CPU use with 12 MPI tasks x no OpenMP threads

Minimization stats:
  Stopping criterion = linesearch alpha is zero
  Energy initial, next-to-last, final = 
        -18273.8028849     -18273.8029081     -18273.8029081
  Force two-norm initial, final = 0.00477859 0.00220919
  Force max component initial, final = 0.000376339 0.000332601
  Final line search alpha, max atom move = 0.00195312 6.49612e-07
  Iterations, force evaluations = 4 31

MPI task timing breakdown:
Section |  min time  |  avg time  |  max time  |%varavg| %total
---------------------------------------------------------------
Pair    | 0.032796   | 0.035403   | 0.038631   |   0.9 | 37.42
Kspace  | 0.049857   | 0.053598   | 0.055069   |   0.6 | 56.66
Neigh   | 0          | 0          | 0          |   0.0 |  0.00
Comm    | 0.0033815  | 0.0050998  | 0.0069408  |   1.6 |  5.39
Output  | 0          | 0          | 0          |   0.0 |  0.00
Modify  | 0          | 0          | 0          |   0.0 |  0.00
Other   |            | 0.0005013  |            |       |  0.53

Nlocal:    84 ave 88 max 79 min
Histogram: 1 1 1 0 2 1 1 3 1 1
Nghost:    2601.33 ave 2626 max 2577 min
Histogram: 2 1 3 0 0 0 2 0 1 3
Neighs:    18632.7 ave 19339 max 17497 min
Histogram: 2 0 1 0 0 2 1 1 3 2

Total # of neighbors = 223592
Ave neighs/atom = 221.817
Neighbor list builds = 0
Dangerous builds = 0
  triclinic box = (0 0 0) to (23.3007 23.3007 23.3007) with tilt (0.038842 0 0)
WARNING: Resetting reneighboring criteria during minimization (../min.cpp:168)
Ewald initialization ...
  G vector (1/distance) = 0.365055
  estimated absolute RMS force accuracy = 1.94166e-05
  estimated relative force accuracy = 1.34841e-06
  KSpace vectors: actual max1d max3d = 2082 10 4630
                  kxmax kymax kzmax  = 10 10 10
Memory usage per processor = 4.56229 Mbytes
Step Temp E_pair E_mol TotEng Press 
     361           10   -18273.827            0   -18272.525   -6886.0846 
     366           10   -18273.832            0    -18272.53   -6892.7922 
Loop time of 0.15261 on 12 procs for 5 steps with 1008 atoms

99.9% CPU use with 12 MPI tasks x no OpenMP threads

Minimization stats:
  Stopping criterion = linesearch alpha is zero
  Energy initial, next-to-last, final = 
        -18273.8266072     -18273.8315272     -18273.8315272
  Force two-norm initial, final = 0.411022 0.13311
  Force max component initial, final = 0.0418401 0.0166907
  Final line search alpha, max atom move = 4.76837e-07 7.95876e-09
  Iterations, force evaluations = 5 51

MPI task timing breakdown:
Section |  min time  |  avg time  |  max time  |%varavg| %total
---------------------------------------------------------------
Pair    | 0.053159   | 0.057122   | 0.064077   |   1.2 | 37.43
Kspace  | 0.079591   | 0.086917   | 0.088897   |   0.8 | 56.95
Neigh   | 0          | 0          | 0          |   0.0 |  0.00
Comm    | 0.0056393  | 0.0078324  | 0.01033    |   1.9 |  5.13
Output  | 0          | 0          | 0          |   0.0 |  0.00
Modify  | 0          | 0          | 0          |   0.0 |  0.00
Other   |            | 0.0007387  |            |       |  0.48

Nlocal:    84 ave 88 max 79 min
Histogram: 1 1 1 0 2 1 1 3 1 1
Nghost:    2601.33 ave 2626 max 2577 min
Histogram: 2 1 3 0 0 0 2 0 1 3
Neighs:    18634.3 ave 19333 max 17505 min
Histogram: 2 0 1 0 0 2 1 1 3 2

Total # of neighbors = 223612
Ave neighs/atom = 221.837
Neighbor list builds = 0
Dangerous builds = 0
  triclinic box = (0 0 0) to (23.3007 23.3007 23.3007) with tilt (0.077661 0 0)
WARNING: Resetting reneighboring criteria during minimization (../min.cpp:168)
Ewald initialization ...
  G vector (1/distance) = 0.365055
  estimated absolute RMS force accuracy = 1.94166e-05
  estimated relative force accuracy = 1.34841e-06
  KSpace vectors: actual max1d max3d = 2081 10 4630
                  kxmax kymax kzmax  = 10 10 10
Memory usage per processor = 4.56229 Mbytes
Step Temp E_pair E_mol TotEng Press 
     366           10   -18273.824            0   -18272.523   -6888.2163 
     390           10   -18273.855            0   -18272.553     -7002.51 
Loop time of 0.474114 on 12 procs for 24 steps with 1008 atoms

99.8% CPU use with 12 MPI tasks x no OpenMP threads

Minimization stats:
  Stopping criterion = linesearch alpha is zero
  Energy initial, next-to-last, final = 
        -18273.8243184     -18273.8548448     -18273.8548448
  Force two-norm initial, final = 0.821837 0.0837425
  Force max component initial, final = 0.0835969 0.0112346
  Final line search alpha, max atom move = 9.53674e-07 1.07141e-08
  Iterations, force evaluations = 24 159

MPI task timing breakdown:
Section |  min time  |  avg time  |  max time  |%varavg| %total
---------------------------------------------------------------
Pair    | 0.16258    | 0.17756    | 0.19779    |   2.1 | 37.45
Kspace  | 0.24704    | 0.26848    | 0.27755    |   1.5 | 56.63
Neigh   | 0          | 0          | 0          |   0.0 |  0.00
Comm    | 0.018526   | 0.025411   | 0.033194   |   3.2 |  5.36
Output  | 0          | 0          | 0          |   0.0 |  0.00
Modify  | 0          | 0          | 0          |   0.0 |  0.00
Other   |            | 0.002665   |            |       |  0.56

Nlocal:    84 ave 88 max 79 min
Histogram: 1 1 1 0 2 1 1 3 1 1
Nghost:    2601.33 ave 2626 max 2577 min
Histogram: 2 1 3 0 0 0 2 0 1 3
Neighs:    18635.9 ave 19340 max 17505 min
Histogram: 2 0 1 0 0 2 1 1 3 2

Total # of neighbors = 223631
Ave neighs/atom = 221.856
Neighbor list builds = 0
Dangerous builds = 0
  triclinic box = (0 0 0) to (23.3007 23.3007 23.3007) with tilt (0.116503 0 0)
WARNING: Resetting reneighboring criteria during minimization (../min.cpp:168)
Ewald initialization ...
  G vector (1/distance) = 0.365055
  estimated absolute RMS force accuracy = 1.94166e-05
  estimated relative force accuracy = 1.34841e-06
  KSpace vectors: actual max1d max3d = 2079 10 4630
                  kxmax kymax kzmax  = 10 10 10
Memory usage per processor = 4.56229 Mbytes
Step Temp E_pair E_mol TotEng Press 
     390           10   -18273.795            0   -18272.493   -6885.9454 
     400           10   -18273.853            0   -18272.551   -6966.7583 
     419           10   -18273.863            0   -18272.561   -7091.4339 
Loop time of 0.308702 on 12 procs for 29 steps with 1008 atoms

99.7% CPU use with 12 MPI tasks x no OpenMP threads

Minimization stats:
  Stopping criterion = linesearch alpha is zero
  Energy initial, next-to-last, final = 
        -18273.7948543     -18273.8626165     -18273.8626165
  Force two-norm initial, final = 1.23292 0.144673
  Force max component initial, final = 0.125282 0.014751
  Final line search alpha, max atom move = 4.76837e-07 7.03381e-09
  Iterations, force evaluations = 29 103

MPI task timing breakdown:
Section |  min time  |  avg time  |  max time  |%varavg| %total
---------------------------------------------------------------
Pair    | 0.10529    | 0.1152     | 0.12717    |   1.7 | 37.32
Kspace  | 0.161      | 0.1749     | 0.17939    |   1.1 | 56.66
Neigh   | 0          | 0          | 0          |   0.0 |  0.00
Comm    | 0.010952   | 0.016814   | 0.02293    |   2.9 |  5.45
Output  | 2.2173e-05 | 2.3464e-05 | 3.0994e-05 |   0.0 |  0.01
Modify  | 0          | 0          | 0          |   0.0 |  0.00
Other   |            | 0.001761   |            |       |  0.57

Nlocal:    84 ave 88 max 79 min
Histogram: 1 1 1 0 2 1 1 3 1 1
Nghost:    2601.33 ave 2626 max 2577 min
Histogram: 2 1 3 0 0 0 2 0 1 3
Neighs:    18637.1 ave 19338 max 17513 min
Histogram: 2 0 1 0 0 2 1 1 3 2

Total # of neighbors = 223645
Ave neighs/atom = 221.87
Neighbor list builds = 0
Dangerous builds = 0
  triclinic box = (0 0 0) to (23.3007 23.3007 23.3007) with tilt (0 -0.116503 0)
WARNING: Resetting reneighboring criteria during minimization (../min.cpp:168)
Ewald initialization ...
  G vector (1/distance) = 0.365055
  estimated absolute RMS force accuracy = 1.94166e-05
  estimated relative force accuracy = 1.34841e-06
  KSpace vectors: actual max1d max3d = 2079 10 4630
                  kxmax kymax kzmax  = 10 10 10
Memory usage per processor = 4.56229 Mbytes
Step Temp E_pair E_mol TotEng Press 
     419           10   -18273.667            0   -18272.365    -6795.358 
     443           10   -18273.729            0   -18272.427   -6873.2453 
Loop time of 0.363839 on 12 procs for 24 steps with 1008 atoms

99.9% CPU use with 12 MPI tasks x no OpenMP threads

Minimization stats:
  Stopping criterion = linesearch alpha is zero
  Energy initial, next-to-last, final = 
        -18273.6670224     -18273.7285554     -18273.7285554
  Force two-norm initial, final = 1.23443 0.077585
  Force max component initial, final = 0.104059 0.00794283
  Final line search alpha, max atom move = 1.90735e-06 1.51497e-08
  Iterations, force evaluations = 24 123

MPI task timing breakdown:
Section |  min time  |  avg time  |  max time  |%varavg| %total
---------------------------------------------------------------
Pair    | 0.12493    | 0.13568    | 0.15307    |   1.9 | 37.29
Kspace  | 0.18867    | 0.20681    | 0.21281    |   1.3 | 56.84
Neigh   | 0          | 0          | 0          |   0.0 |  0.00
Comm    | 0.013881   | 0.019307   | 0.025118   |   2.9 |  5.31
Output  | 0          | 0          | 0          |   0.0 |  0.00
Modify  | 0          | 0          | 0          |   0.0 |  0.00
Other   |            | 0.002039   |            |       |  0.56

Nlocal:    84 ave 88 max 79 min
Histogram: 1 1 1 0 2 1 1 3 1 1
Nghost:    2601.33 ave 2626 max 2577 min
Histogram: 2 1 3 0 0 0 2 0 1 3
Neighs:    18632.5 ave 19335 max 17495 min
Histogram: 2 0 1 0 0 2 1 1 2 3

Total # of neighbors = 223590
Ave neighs/atom = 221.815
Neighbor list builds = 0
Dangerous builds = 0
  triclinic box = (0 0 0) to (23.3007 23.3007 23.3007) with tilt (0 -0.077661 0)
WARNING: Resetting reneighboring criteria during minimization (../min.cpp:168)
Ewald initialization ...
  G vector (1/distance) = 0.365055
  estimated absolute RMS force accuracy = 1.94166e-05
  estimated relative force accuracy = 1.34841e-06
  KSpace vectors: actual max1d max3d = 2081 10 4630
                  kxmax kymax kzmax  = 10 10 10
Memory usage per processor = 4.56229 Mbytes
Step Temp E_pair E_mol TotEng Press 
     443           10   -18273.741            0   -18272.439   -6828.6396 
     450           10   -18273.762            0    -18272.46    -6854.586 
Loop time of 0.175042 on 12 procs for 7 steps with 1008 atoms

99.6% CPU use with 12 MPI tasks x no OpenMP threads

Minimization stats:
  Stopping criterion = linesearch alpha is zero
  Energy initial, next-to-last, final = 
        -18273.7406884      -18273.761695      -18273.761695
  Force two-norm initial, final = 0.823032 0.183725
  Force max component initial, final = 0.0695073 0.0220577
  Final line search alpha, max atom move = 2.38419e-07 5.25897e-09
  Iterations, force evaluations = 7 57

MPI task timing breakdown:
Section |  min time  |  avg time  |  max time  |%varavg| %total
---------------------------------------------------------------
Pair    | 0.060156   | 0.065194   | 0.072171   |   1.2 | 37.24
Kspace  | 0.09071    | 0.098857   | 0.10147    |   0.8 | 56.48
Neigh   | 0          | 0          | 0          |   0.0 |  0.00
Comm    | 0.0066168  | 0.0099809  | 0.01349    |   2.1 |  5.70
Output  | 0          | 0          | 0          |   0.0 |  0.00
Modify  | 0          | 0          | 0          |   0.0 |  0.00
Other   |            | 0.00101    |            |       |  0.58

Nlocal:    84 ave 88 max 79 min
Histogram: 1 1 1 0 2 1 1 3 1 1
Nghost:    2601.33 ave 2626 max 2577 min
Histogram: 2 1 3 0 0 0 2 0 1 3
Neighs:    18633.2 ave 19334 max 17494 min
Histogram: 2 0 1 0 0 2 1 1 3 2

Total # of neighbors = 223598
Ave neighs/atom = 221.823
Neighbor list builds = 0
Dangerous builds = 0
  triclinic box = (0 0 0) to (23.3007 23.3007 23.3007) with tilt (0 -0.038842 0)
WARNING: Resetting reneighboring criteria during minimization (../min.cpp:168)
Ewald initialization ...
  G vector (1/distance) = 0.365055
  estimated absolute RMS force accuracy = 1.94166e-05
  estimated relative force accuracy = 1.34841e-06
  KSpace vectors: actual max1d max3d = 2082 10 4630
                  kxmax kymax kzmax  = 10 10 10
Memory usage per processor = 4.56229 Mbytes
Step Temp E_pair E_mol TotEng Press 
     450           10   -18273.784            0   -18272.483   -6856.4711 
     458           10    -18273.79            0   -18272.488   -6869.3499 
Loop time of 0.16319 on 12 procs for 8 steps with 1008 atoms

99.8% CPU use with 12 MPI tasks x no OpenMP threads

Minimization stats:
  Stopping criterion = linesearch alpha is zero
  Energy initial, next-to-last, final = 
        -18273.7844027     -18273.7900137     -18273.7900137
  Force two-norm initial, final = 0.411739 0.0794013
  Force max component initial, final = 0.0348129 0.00790304
  Final line search alpha, max atom move = 1.90735e-06 1.50739e-08
  Iterations, force evaluations = 8 53

MPI task timing breakdown:
Section |  min time  |  avg time  |  max time  |%varavg| %total
---------------------------------------------------------------
Pair    | 0.055391   | 0.060783   | 0.067638   |   1.3 | 37.25
Kspace  | 0.084363   | 0.092276   | 0.094411   |   0.9 | 56.54
Neigh   | 0          | 0          | 0          |   0.0 |  0.00
Comm    | 0.0061038  | 0.0091865  | 0.012486   |   2.0 |  5.63
Output  | 0          | 0          | 0          |   0.0 |  0.00
Modify  | 0          | 0          | 0          |   0.0 |  0.00
Other   |            | 0.0009447  |            |       |  0.58

Nlocal:    84 ave 88 max 79 min
Histogram: 1 1 1 0 2 1 1 3 1 1
Nghost:    2601.33 ave 2626 max 2577 min
Histogram: 2 1 3 0 0 0 2 0 1 3
Neighs:    18632.7 ave 19335 max 17497 min
Histogram: 2 0 1 0 0 2 1 1 3 2

Total # of neighbors = 223592
Ave neighs/atom = 221.817
Neighbor list builds = 0
Dangerous builds = 0
  triclinic box = (0 0 0) to (23.3007 23.3007 23.3007) with tilt (0 0 0)
WARNING: Resetting reneighboring criteria during minimization (../min.cpp:168)
Ewald initialization ...
  G vector (1/distance) = 0.365055
  estimated absolute RMS force accuracy = 1.94166e-05
  estimated relative force accuracy = 1.34841e-06
  KSpace vectors: actual max1d max3d = 2084 10 4630
                  kxmax kymax kzmax  = 10 10 10
Memory usage per processor = 4.56229 Mbytes
Step Temp E_pair E_mol TotEng Press 
     458           10   -18273.803            0   -18272.501   -6879.9656 
     462           10   -18273.803            0   -18272.501   -6874.1217 
Loop time of 0.0954839 on 12 procs for 4 steps with 1008 atoms

99.8% CPU use with 12 MPI tasks x no OpenMP threads

Minimization stats:
  Stopping criterion = linesearch alpha is zero
  Energy initial, next-to-last, final = 
        -18273.8028849     -18273.8029081     -18273.8029081
  Force two-norm initial, final = 0.00477859 0.00220919
  Force max component initial, final = 0.000376339 0.000332601
  Final line search alpha, max atom move = 0.00195312 6.49612e-07
  Iterations, force evaluations = 4 31

MPI task timing breakdown:
Section |  min time  |  avg time  |  max time  |%varavg| %total
---------------------------------------------------------------
Pair    | 0.033041   | 0.035499   | 0.039874   |   0.9 | 37.18
Kspace  | 0.049735   | 0.054314   | 0.055447   |   0.6 | 56.88
Neigh   | 0          | 0          | 0          |   0.0 |  0.00
Comm    | 0.0037756  | 0.0051151  | 0.0065949  |   1.4 |  5.36
Output  | 0          | 0          | 0          |   0.0 |  0.00
Modify  | 0          | 0          | 0          |   0.0 |  0.00
Other   |            | 0.0005557  |            |       |  0.58

Nlocal:    84 ave 88 max 79 min
Histogram: 1 1 1 0 2 1 1 3 1 1
Nghost:    2601.33 ave 2626 max 2577 min
Histogram: 2 1 3 0 0 0 2 0 1 3
Neighs:    18632.7 ave 19339 max 17497 min
Histogram: 2 0 1 0 0 2 1 1 3 2

Total # of neighbors = 223592
Ave neighs/atom = 221.817
Neighbor list builds = 0
Dangerous builds = 0
  triclinic box = (0 0 0) to (23.3007 23.3007 23.3007) with tilt (0 0.038842 0)
WARNING: Resetting reneighboring criteria during minimization (../min.cpp:168)
Ewald initialization ...
  G vector (1/distance) = 0.365055
  estimated absolute RMS force accuracy = 1.94166e-05
  estimated relative force accuracy = 1.34841e-06
  KSpace vectors: actual max1d max3d = 2082 10 4630
                  kxmax kymax kzmax  = 10 10 10
Memory usage per processor = 4.56229 Mbytes
Step Temp E_pair E_mol TotEng Press 
     462           10   -18273.796            0   -18272.495   -6899.1429 
     467           10   -18273.801            0     -18272.5   -6882.2584 
Loop time of 0.155333 on 12 procs for 5 steps with 1008 atoms

99.8% CPU use with 12 MPI tasks x no OpenMP threads

Minimization stats:
  Stopping criterion = linesearch alpha is zero
  Energy initial, next-to-last, final = 
         -18273.796186     -18273.8011593     -18273.8011593
  Force two-norm initial, final = 0.411722 0.125
  Force max component initial, final = 0.0351141 0.0144905
  Final line search alpha, max atom move = 4.76837e-07 6.9096e-09
  Iterations, force evaluations = 5 51

MPI task timing breakdown:
Section |  min time  |  avg time  |  max time  |%varavg| %total
---------------------------------------------------------------
Pair    | 0.053461   | 0.057417   | 0.066225   |   1.4 | 36.96
Kspace  | 0.080112   | 0.089044   | 0.091401   |   1.0 | 57.32
Neigh   | 0          | 0          | 0          |   0.0 |  0.00
Comm    | 0.0057096  | 0.008034   | 0.010506   |   1.8 |  5.17
Output  | 0          | 0          | 0          |   0.0 |  0.00
Modify  | 0          | 0          | 0          |   0.0 |  0.00
Other   |            | 0.0008371  |            |       |  0.54

Nlocal:    84 ave 88 max 79 min
Histogram: 1 1 1 0 2 1 1 3 1 1
Nghost:    2601.33 ave 2626 max 2577 min
Histogram: 2 1 3 0 0 0 2 0 1 3
Neighs:    18633.3 ave 19334 max 17502 min
Histogram: 2 0 1 0 0 2 1 1 3 2

Total # of neighbors = 223600
Ave neighs/atom = 221.825
Neighbor list builds = 0
Dangerous builds = 0
  triclinic box = (0 0 0) to (23.3007 23.3007 23.3007) with tilt (0 0.077661 0)
WARNING: Resetting reneighboring criteria during minimization (../min.cpp:168)
Ewald initialization ...
  G vector (1/distance) = 0.365055
  estimated absolute RMS force accuracy = 1.94166e-05
  estimated relative force accuracy = 1.34841e-06
  KSpace vectors: actual max1d max3d = 2081 10 4630
                  kxmax kymax kzmax  = 10 10 10
Memory usage per processor = 4.56229 Mbytes
Step Temp E_pair E_mol TotEng Press 
     467           10   -18273.758            0   -18272.456   -6912.4366 
     481           10   -18273.784            0   -18272.482    -6864.008 
Loop time of 0.202466 on 12 procs for 14 steps with 1008 atoms

99.9% CPU use with 12 MPI tasks x no OpenMP threads

Minimization stats:
  Stopping criterion = linesearch alpha is zero
  Energy initial, next-to-last, final = 
        -18273.7576384     -18273.7841172     -18273.7841172
  Force two-norm initial, final = 0.823384 0.0882039
  Force max component initial, final = 0.0703056 0.00768533
  Final line search alpha, max atom move = 9.53674e-07 7.3293e-09
  Iterations, force evaluations = 14 67

MPI task timing breakdown:
Section |  min time  |  avg time  |  max time  |%varavg| %total
---------------------------------------------------------------
Pair    | 0.069471   | 0.07494    | 0.085468   |   1.5 | 37.01
Kspace  | 0.10467    | 0.11548    | 0.11807    |   1.0 | 57.04
Neigh   | 0          | 0          | 0          |   0.0 |  0.00
Comm    | 0.0077868  | 0.010817   | 0.014377   |   2.2 |  5.34
Output  | 0          | 0          | 0          |   0.0 |  0.00
Modify  | 0          | 0          | 0          |   0.0 |  0.00
Other   |            | 0.001229   |            |       |  0.61

Nlocal:    84 ave 88 max 79 min
Histogram: 1 1 1 0 2 1 1 3 1 1
Nghost:    2601.33 ave 2626 max 2577 min
Histogram: 2 1 3 0 0 0 2 0 1 3
Neighs:    18632.6 ave 19332 max 17506 min
Histogram: 2 0 1 0 0 2 1 1 3 2

Total # of neighbors = 223591
Ave neighs/atom = 221.816
Neighbor list builds = 0
Dangerous builds = 0
  triclinic box = (0 0 0) to (23.3007 23.3007 23.3007) with tilt (0 0.116503 0)
WARNING: Resetting reneighboring criteria during minimization (../min.cpp:168)
Ewald initialization ...
  G vector (1/distance) = 0.365055
  estimated absolute RMS force accuracy = 1.94166e-05
  estimated relative force accuracy = 1.34841e-06
  KSpace vectors: actual max1d max3d = 2079 10 4630
                  kxmax kymax kzmax  = 10 10 10
Memory usage per processor = 4.56229 Mbytes
Step Temp E_pair E_mol TotEng Press 
     481           10   -18273.695            0   -18272.393   -6921.5908 
     498           10    -18273.75            0   -18272.449   -6854.1763 
Loop time of 0.221202 on 12 procs for 17 steps with 1008 atoms

99.8% CPU use with 12 MPI tasks x no OpenMP threads

Minimization stats:
  Stopping criterion = linesearch alpha is zero
  Energy initial, next-to-last, final = 
        -18273.6947806     -18273.7503226     -18273.7503226
  Force two-norm initial, final = 1.23542 0.110211
  Force max component initial, final = 0.105692 0.0214485
  Final line search alpha, max atom move = 9.53674e-07 2.04549e-08
  Iterations, force evaluations = 17 73

MPI task timing breakdown:
Section |  min time  |  avg time  |  max time  |%varavg| %total
---------------------------------------------------------------
Pair    | 0.075096   | 0.082415   | 0.091497   |   1.5 | 37.26
Kspace  | 0.11464    | 0.12505    | 0.12873    |   1.0 | 56.53
Neigh   | 0          | 0          | 0          |   0.0 |  0.00
Comm    | 0.0081992  | 0.012436   | 0.016814   |   2.4 |  5.62
Output  | 0          | 0          | 0          |   0.0 |  0.00
Modify  | 0          | 0          | 0          |   0.0 |  0.00
Other   |            | 0.001304   |            |       |  0.59

Nlocal:    84 ave 88 max 79 min
Histogram: 1 1 1 0 2 1 1 3 1 1
Nghost:    2601.33 ave 2626 max 2577 min
Histogram: 2 1 3 0 0 0 2 0 1 3
Neighs:    18634.1 ave 19335 max 17510 min
Histogram: 2 0 1 0 0 2 1 1 3 2

Total # of neighbors = 223609
Ave neighs/atom = 221.834
Neighbor list builds = 0
Dangerous builds = 0
  triclinic box = (0 0 0) to (23.3007 23.3007 23.3007) with tilt (0 0 -0.116503)
WARNING: Resetting reneighboring criteria during minimization (../min.cpp:168)
Ewald initialization ...
  G vector (1/distance) = 0.365055
  estimated absolute RMS force accuracy = 1.94166e-05
  estimated relative force accuracy = 1.34841e-06
  KSpace vectors: actual max1d max3d = 2079 10 4630
                  kxmax kymax kzmax  = 10 10 10
Memory usage per processor = 4.56229 Mbytes
Step Temp E_pair E_mol TotEng Press 
     498           10   -18273.606            0   -18272.304   -6868.5306 
     500           10   -18273.641            0   -18272.339   -6816.2933 
     536           10   -18273.688            0   -18272.387   -6882.8774 
Loop time of 0.467958 on 12 procs for 38 steps with 1008 atoms

99.9% CPU use with 12 MPI tasks x no OpenMP threads

Minimization stats:
  Stopping criterion = linesearch alpha is zero
  Energy initial, next-to-last, final = 
        -18273.6061131     -18273.6881848     -18273.6881848
  Force two-norm initial, final = 1.2498 0.116101
  Force max component initial, final = 0.124469 0.0205378
  Final line search alpha, max atom move = 4.76837e-07 9.79319e-09
  Iterations, force evaluations = 38 157

MPI task timing breakdown:
Section |  min time  |  avg time  |  max time  |%varavg| %total
---------------------------------------------------------------
Pair    | 0.16048    | 0.17396    | 0.19528    |   2.1 | 37.17
Kspace  | 0.24303    | 0.26567    | 0.2713     |   1.4 | 56.77
Neigh   | 0          | 0          | 0          |   0.0 |  0.00
Comm    | 0.018331   | 0.025576   | 0.033641   |   3.3 |  5.47
Output  | 2.5034e-05 | 2.6107e-05 | 3.4094e-05 |   0.0 |  0.01
Modify  | 0          | 0          | 0          |   0.0 |  0.00
Other   |            | 0.002733   |            |       |  0.58

Nlocal:    84 ave 88 max 79 min
Histogram: 1 1 1 0 2 1 1 3 1 1
Nghost:    2601.33 ave 2626 max 2577 min
Histogram: 2 1 3 0 0 0 2 0 1 3
Neighs:    18632.2 ave 19332 max 17488 min
Histogram: 2 0 1 0 0 2 1 1 3 2

Total # of neighbors = 223586
Ave neighs/atom = 221.812
Neighbor list builds = 0
Dangerous builds = 0
  triclinic box = (0 0 0) to (23.3007 23.3007 23.3007) with tilt (0 0 -0.077661)
WARNING: Resetting reneighboring criteria during minimization (../min.cpp:168)
Ewald initialization ...
  G vector (1/distance) = 0.365055
  estimated absolute RMS force accuracy = 1.94166e-05
  estimated relative force accuracy = 1.34841e-06
  KSpace vectors: actual max1d max3d = 2081 10 4630
                  kxmax kymax kzmax  = 10 10 10
Memory usage per processor = 4.56229 Mbytes
Step Temp E_pair E_mol TotEng Press 
     536           10   -18273.699            0   -18272.397   -6876.8379 
     549           10   -18273.727            0   -18272.425   -6793.1753 
Loop time of 0.201986 on 12 procs for 13 steps with 1008 atoms

99.9% CPU use with 12 MPI tasks x no OpenMP threads

Minimization stats:
  Stopping criterion = linesearch alpha is zero
  Energy initial, next-to-last, final = 
        -18273.6988909     -18273.7267566     -18273.7267566
  Force two-norm initial, final = 0.833161 0.138897
  Force max component initial, final = 0.0829369 0.0129481
  Final line search alpha, max atom move = 4.76837e-07 6.17413e-09
  Iterations, force evaluations = 13 67

MPI task timing breakdown:
Section |  min time  |  avg time  |  max time  |%varavg| %total
---------------------------------------------------------------
Pair    | 0.070044   | 0.075164   | 0.083851   |   1.3 | 37.21
Kspace  | 0.10526    | 0.11461    | 0.11763    |   0.9 | 56.74
Neigh   | 0          | 0          | 0          |   0.0 |  0.00
Comm    | 0.0078385  | 0.011047   | 0.014497   |   2.2 |  5.47
Output  | 0          | 0          | 0          |   0.0 |  0.00
Modify  | 0          | 0          | 0          |   0.0 |  0.00
Other   |            | 0.001169   |            |       |  0.58

Nlocal:    84 ave 88 max 79 min
Histogram: 1 1 1 0 2 1 1 3 1 1
Nghost:    2601.33 ave 2626 max 2577 min
Histogram: 2 1 3 0 0 0 2 0 1 3
Neighs:    18630.5 ave 19333 max 17487 min
Histogram: 2 0 1 0 0 2 1 1 3 2

Total # of neighbors = 223566
Ave neighs/atom = 221.792
Neighbor list builds = 0
Dangerous builds = 0
  triclinic box = (0 0 0) to (23.3007 23.3007 23.3007) with tilt (0 0 -0.038842)
WARNING: Resetting reneighboring criteria during minimization (../min.cpp:168)
Ewald initialization ...
  G vector (1/distance) = 0.365055
  estimated absolute RMS force accuracy = 1.94166e-05
  estimated relative force accuracy = 1.34841e-06
  KSpace vectors: actual max1d max3d = 2082 10 4630
[...]
        -18273.8237585     -18273.8296174     -18273.8296174
  Force two-norm initial, final = 0.412209 0.152407
  Force max component initial, final = 0.034831 0.0209317
  Final line search alpha, max atom move = 4.76837e-07 9.98102e-09
  Iterations, force evaluations = 4 49

MPI task timing breakdown:
Section |  min time  |  avg time  |  max time  |%varavg| %total
---------------------------------------------------------------
Pair    | 0.05184    | 0.055644   | 0.062676   |   1.2 | 37.17
Kspace  | 0.07745    | 0.084801   | 0.086667   |   0.8 | 56.64
Neigh   | 0          | 0          | 0          |   0.0 |  0.00
Comm    | 0.0061967  | 0.0084178  | 0.010683   |   1.7 |  5.62
Output  | 0          | 0          | 0          |   0.0 |  0.00
Modify  | 0          | 0          | 0          |   0.0 |  0.00
Other   |            | 0.0008441  |            |       |  0.56

Nlocal:    84 ave 88 max 79 min
Histogram: 1 1 0 2 1 1 1 3 1 1
Nghost:    2604.58 ave 2628 max 2577 min
Histogram: 2 1 1 2 0 0 1 1 0 4
Neighs:    18632.7 ave 19370 max 17486 min
Histogram: 2 0 0 1 1 1 1 1 3 2

Total # of neighbors = 223592
Ave neighs/atom = 221.817
Neighbor list builds = 0
Dangerous builds = 0
  triclinic box = (0 0 0) to (23.3007 23.3007 23.3007) with tilt (0 0.077661 0)
WARNING: Resetting reneighboring criteria during minimization (../min.cpp:168)
Ewald initialization ...
  G vector (1/distance) = 0.365055
  estimated absolute RMS force accuracy = 1.94166e-05
  estimated relative force accuracy = 1.34841e-06
  KSpace vectors: actual max1d max3d = 2081 10 4630
                  kxmax kymax kzmax  = 10 10 10
Memory usage per processor = 4.56229 Mbytes
Step Temp E_pair E_mol TotEng Press 
    1006           10   -18273.789            0   -18272.487   -6543.2431 
    1015           10   -18273.813            0   -18272.511    -6497.501 
Loop time of 0.180176 on 12 procs for 9 steps with 1008 atoms

100.1% CPU use with 12 MPI tasks x no OpenMP threads

Minimization stats:
  Stopping criterion = linesearch alpha is zero
  Energy initial, next-to-last, final = 
        -18273.7886596     -18273.8128314     -18273.8128314
  Force two-norm initial, final = 0.824315 0.14325
  Force max component initial, final = 0.0697556 0.0178302
  Final line search alpha, max atom move = 4.76837e-07 8.50208e-09
  Iterations, force evaluations = 9 59

MPI task timing breakdown:
Section |  min time  |  avg time  |  max time  |%varavg| %total
---------------------------------------------------------------
Pair    | 0.062291   | 0.066778   | 0.075851   |   1.4 | 37.06
Kspace  | 0.092724   | 0.1025     | 0.10457    |   1.0 | 56.89
Neigh   | 0          | 0          | 0          |   0.0 |  0.00
Comm    | 0.0069077  | 0.0098969  | 0.012672   |   2.0 |  5.49
Output  | 0          | 0          | 0          |   0.0 |  0.00
Modify  | 0          | 0          | 0          |   0.0 |  0.00
Other   |            | 0.001004   |            |       |  0.56

Nlocal:    84 ave 88 max 79 min
Histogram: 1 1 0 2 1 1 1 3 1 1
Nghost:    2604.58 ave 2628 max 2577 min
Histogram: 2 1 1 2 0 0 1 1 0 4
Neighs:    18632.6 ave 19369 max 17488 min
Histogram: 2 0 0 1 1 1 1 1 3 2

Total # of neighbors = 223591
Ave neighs/atom = 221.816
Neighbor list builds = 0
Dangerous builds = 0
  triclinic box = (0 0 0) to (23.3007 23.3007 23.3007) with tilt (0 0.116503 0)
WARNING: Resetting reneighboring criteria during minimization (../min.cpp:168)
Ewald initialization ...
  G vector (1/distance) = 0.365055
  estimated absolute RMS force accuracy = 1.94166e-05
  estimated relative force accuracy = 1.34841e-06
  KSpace vectors: actual max1d max3d = 2079 10 4630
                  kxmax kymax kzmax  = 10 10 10
Memory usage per processor = 4.56229 Mbytes
Step Temp E_pair E_mol TotEng Press 
    1015           10    -18273.73            0   -18272.428   -6552.0645 
    1029           10   -18273.785            0   -18272.483   -6485.6149 
Loop time of 0.209553 on 12 procs for 14 steps with 1008 atoms

99.9% CPU use with 12 MPI tasks x no OpenMP threads

Minimization stats:
  Stopping criterion = linesearch alpha is zero
  Energy initial, next-to-last, final = 
        -18273.7299899     -18273.7845554     -18273.7845554
  Force two-norm initial, final = 1.23681 0.129945
  Force max component initial, final = 0.104877 0.0124599
  Final line search alpha, max atom move = 4.76837e-07 5.94134e-09
  Iterations, force evaluations = 14 69

MPI task timing breakdown:
Section |  min time  |  avg time  |  max time  |%varavg| %total
---------------------------------------------------------------
Pair    | 0.072471   | 0.077873   | 0.088285   |   1.5 | 37.16
Kspace  | 0.1081     | 0.11912    | 0.12195    |   1.1 | 56.85
Neigh   | 0          | 0          | 0          |   0.0 |  0.00
Comm    | 0.0079563  | 0.01136    | 0.014843   |   2.2 |  5.42
Output  | 0          | 0          | 0          |   0.0 |  0.00
Modify  | 0          | 0          | 0          |   0.0 |  0.00
Other   |            | 0.001195   |            |       |  0.57

Nlocal:    84 ave 88 max 79 min
Histogram: 1 1 0 2 1 1 1 3 1 1
Nghost:    2604.58 ave 2628 max 2577 min
Histogram: 2 1 1 2 0 0 1 1 0 4
Neighs:    18631.8 ave 19363 max 17492 min
Histogram: 2 0 0 1 1 1 1 1 3 2

Total # of neighbors = 223581
Ave neighs/atom = 221.807
Neighbor list builds = 0
Dangerous builds = 0
  triclinic box = (0 0 0) to (23.3007 23.3007 23.3007) with tilt (0 0 -0.116503)
WARNING: Resetting reneighboring criteria during minimization (../min.cpp:168)
Ewald initialization ...
  G vector (1/distance) = 0.365055
  estimated absolute RMS force accuracy = 1.94166e-05
  estimated relative force accuracy = 1.34841e-06
  KSpace vectors: actual max1d max3d = 2079 10 4630
                  kxmax kymax kzmax  = 10 10 10
Memory usage per processor = 4.56229 Mbytes
Step Temp E_pair E_mol TotEng Press 
    1029           10   -18273.586            0   -18272.285   -6496.9858 
    1048           10   -18273.648            0   -18272.347   -6404.7692 
Loop time of 0.244005 on 12 procs for 19 steps with 1008 atoms

99.9% CPU use with 12 MPI tasks x no OpenMP threads

Minimization stats:
  Stopping criterion = linesearch alpha is zero
  Energy initial, next-to-last, final = 
        -18273.5864633     -18273.6484391     -18273.6484391
  Force two-norm initial, final = 1.25377 0.108607
  Force max component initial, final = 0.124414 0.0136698
  Final line search alpha, max atom move = 9.53674e-07 1.30365e-08
  Iterations, force evaluations = 19 81

MPI task timing breakdown:
Section |  min time  |  avg time  |  max time  |%varavg| %total
---------------------------------------------------------------
Pair    | 0.085314   | 0.091091   | 0.10247    |   1.6 | 37.33
Kspace  | 0.12631    | 0.13836    | 0.14118    |   1.0 | 56.71
Neigh   | 0          | 0          | 0          |   0.0 |  0.00
Comm    | 0.0093868  | 0.013139   | 0.017295   |   2.3 |  5.38
Output  | 0          | 0          | 0          |   0.0 |  0.00
Modify  | 0          | 0          | 0          |   0.0 |  0.00
Other   |            | 0.00141    |            |       |  0.58

Nlocal:    84 ave 88 max 79 min
Histogram: 1 1 0 2 1 1 1 3 1 1
Nghost:    2604.58 ave 2628 max 2577 min
Histogram: 2 1 1 2 0 0 1 1 0 4
Neighs:    18634.3 ave 19369 max 17479 min
Histogram: 2 0 0 1 1 1 1 1 3 2

Total # of neighbors = 223612
Ave neighs/atom = 221.837
Neighbor list builds = 0
Dangerous builds = 0
  triclinic box = (0 0 0) to (23.3007 23.3007 23.3007) with tilt (0 0 -0.077661)
WARNING: Resetting reneighboring criteria during minimization (../min.cpp:168)
Ewald initialization ...
  G vector (1/distance) = 0.365055
  estimated absolute RMS force accuracy = 1.94166e-05
  estimated relative force accuracy = 1.34841e-06
  KSpace vectors: actual max1d max3d = 2081 10 4630
                  kxmax kymax kzmax  = 10 10 10
Memory usage per processor = 4.56229 Mbytes
Step Temp E_pair E_mol TotEng Press 
    1048           10   -18273.692            0   -18272.391   -6506.1737 
    1050           10   -18273.707            0   -18272.406   -6467.8726 
    1063           10   -18273.722            0   -18272.421   -6428.4713 
Loop time of 0.209883 on 12 procs for 15 steps with 1008 atoms

99.7% CPU use with 12 MPI tasks x no OpenMP threads

Minimization stats:
  Stopping criterion = linesearch alpha is zero
  Energy initial, next-to-last, final = 
        -18273.6923976     -18273.7224321     -18273.7224321
  Force two-norm initial, final = 0.835761 0.0983415
  Force max component initial, final = 0.0829047 0.0121663
  Final line search alpha, max atom move = 9.53674e-07 1.16027e-08
  Iterations, force evaluations = 15 69

MPI task timing breakdown:
Section |  min time  |  avg time  |  max time  |%varavg| %total
---------------------------------------------------------------
Pair    | 0.072841   | 0.077772   | 0.089042   |   1.5 | 37.05
Kspace  | 0.10791    | 0.11965    | 0.12283    |   1.1 | 57.01
Neigh   | 0          | 0          | 0          |   0.0 |  0.00
Comm    | 0.0080736  | 0.011199   | 0.014845   |   2.1 |  5.34
Output  | 2.1935e-05 | 2.3007e-05 | 3.0041e-05 |   0.0 |  0.01
Modify  | 0          | 0          | 0          |   0.0 |  0.00
Other   |            | 0.001238   |            |       |  0.59

Nlocal:    84 ave 88 max 79 min
Histogram: 1 1 0 2 1 1 1 3 1 1
Nghost:    2604.58 ave 2628 max 2577 min
Histogram: 2 1 1 2 0 0 1 1 0 4
Neighs:    18634.7 ave 19371 max 17482 min
Histogram: 2 0 0 1 1 1 1 1 3 2

Total # of neighbors = 223616
Ave neighs/atom = 221.841
Neighbor list builds = 0
Dangerous builds = 0
  triclinic box = (0 0 0) to (23.3007 23.3007 23.3007) with tilt (0 0 -0.038842)
WARNING: Resetting reneighboring criteria during minimization (../min.cpp:168)
Ewald initialization ...
  G vector (1/distance) = 0.365055
  estimated absolute RMS force accuracy = 1.94166e-05
  estimated relative force accuracy = 1.34841e-06
  KSpace vectors: actual max1d max3d = 2082 10 4630
                  kxmax kymax kzmax  = 10 10 10
Memory usage per processor = 4.56229 Mbytes
Step Temp E_pair E_mol TotEng Press 
    1063           10   -18273.774            0   -18272.472   -6511.4514 
    1073           10   -18273.781            0   -18272.479   -6461.2791 
Loop time of 0.174135 on 12 procs for 10 steps with 1008 atoms

99.8% CPU use with 12 MPI tasks x no OpenMP threads

Minimization stats:
  Stopping criterion = linesearch alpha is zero
  Energy initial, next-to-last, final = 
        -18273.7739338     -18273.7809813     -18273.7809813
  Force two-norm initial, final = 0.418078 0.0802306
  Force max component initial, final = 0.0414795 0.00819917
  Final line search alpha, max atom move = 1.90735e-06 1.56387e-08
  Iterations, force evaluations = 10 57

MPI task timing breakdown:
Section |  min time  |  avg time  |  max time  |%varavg| %total
---------------------------------------------------------------
Pair    | 0.059885   | 0.064639   | 0.072873   |   1.4 | 37.12
Kspace  | 0.08988    | 0.098942   | 0.10122    |   0.9 | 56.82
Neigh   | 0          | 0          | 0          |   0.0 |  0.00
Comm    | 0.0064378  | 0.0095413  | 0.012154   |   2.0 |  5.48
Output  | 0          | 0          | 0          |   0.0 |  0.00
Modify  | 0          | 0          | 0          |   0.0 |  0.00
Other   |            | 0.001012   |            |       |  0.58

Nlocal:    84 ave 88 max 79 min
Histogram: 1 1 0 2 1 1 1 3 1 1
Nghost:    2604.58 ave 2628 max 2577 min
Histogram: 2 1 1 2 0 0 1 1 0 4
Neighs:    18634.2 ave 19371 max 17483 min
Histogram: 2 0 0 1 1 1 1 1 3 2

Total # of neighbors = 223611
Ave neighs/atom = 221.836
Neighbor list builds = 0
Dangerous builds = 0
  triclinic box = (0 0 0) to (23.3007 23.3007 23.3007) with tilt (0 0 0)
WARNING: Resetting reneighboring criteria during minimization (../min.cpp:168)
Ewald initialization ...
  G vector (1/distance) = 0.365055
  estimated absolute RMS force accuracy = 1.94166e-05
  estimated relative force accuracy = 1.34841e-06
  KSpace vectors: actual max1d max3d = 2084 10 4630
                  kxmax kymax kzmax  = 10 10 10
Memory usage per processor = 4.56229 Mbytes
Step Temp E_pair E_mol TotEng Press 
    1073           10   -18273.829            0   -18272.527   -6512.3529 
    1074           10   -18273.829            0   -18272.527   -6512.3529 
Loop time of 0.0710851 on 12 procs for 1 steps with 1008 atoms

99.9% CPU use with 12 MPI tasks x no OpenMP threads

Minimization stats:
  Stopping criterion = linesearch alpha is zero
  Energy initial, next-to-last, final = 
        -18273.8287374     -18273.8287374     -18273.8287374
  Force two-norm initial, final = 0.00476316 0.00476316
  Force max component initial, final = 0.000371271 0.000371271
  Final line search alpha, max atom move = 0.000488281 1.81284e-07
  Iterations, force evaluations = 1 23

MPI task timing breakdown:
Section |  min time  |  avg time  |  max time  |%varavg| %total
---------------------------------------------------------------
Pair    | 0.024813   | 0.02654    | 0.029592   |   0.8 | 37.34
Kspace  | 0.037115   | 0.040341   | 0.041362   |   0.5 | 56.75
Neigh   | 0          | 0          | 0          |   0.0 |  0.00
Comm    | 0.0027275  | 0.0038267  | 0.0050642  |   1.3 |  5.38
Output  | 0          | 0          | 0          |   0.0 |  0.00
Modify  | 0          | 0          | 0          |   0.0 |  0.00
Other   |            | 0.0003775  |            |       |  0.53

Nlocal:    84 ave 88 max 79 min
Histogram: 1 1 0 2 1 1 1 3 1 1
Nghost:    2604.58 ave 2628 max 2577 min
Histogram: 2 1 1 2 0 0 1 1 0 4
Neighs:    18635.1 ave 19373 max 17484 min
Histogram: 2 0 0 1 1 1 1 1 3 2

Total # of neighbors = 223621
Ave neighs/atom = 221.846
Neighbor list builds = 0
Dangerous builds = 0
  triclinic box = (0 0 0) to (23.3007 23.3007 23.3007) with tilt (0 0 0.038842)
WARNING: Resetting reneighboring criteria during minimization (../min.cpp:168)
Ewald initialization ...
  G vector (1/distance) = 0.365055
  estimated absolute RMS force accuracy = 1.94166e-05
  estimated relative force accuracy = 1.34841e-06
  KSpace vectors: actual max1d max3d = 2082 10 4630
                  kxmax kymax kzmax  = 10 10 10
Memory usage per processor = 4.56229 Mbytes
Step Temp E_pair E_mol TotEng Press 
    1074           10   -18273.857            0   -18272.556   -6508.8345 
    1081           10   -18273.865            0   -18272.563   -6543.6257 
Loop time of 0.160555 on 12 procs for 7 steps with 1008 atoms

100.0% CPU use with 12 MPI tasks x no OpenMP threads

Minimization stats:
  Stopping criterion = linesearch alpha is zero
  Energy initial, next-to-last, final = 
        -18273.8573847     -18273.8645328     -18273.8645328
  Force two-norm initial, final = 0.417803 0.101229
  Force max component initial, final = 0.0412513 0.00898025
  Final line search alpha, max atom move = 9.53674e-07 8.56423e-09
  Iterations, force evaluations = 7 53

MPI task timing breakdown:
Section |  min time  |  avg time  |  max time  |%varavg| %total
---------------------------------------------------------------
Pair    | 0.055977   | 0.059885   | 0.066614   |   1.2 | 37.30
Kspace  | 0.083501   | 0.090837   | 0.092919   |   0.8 | 56.58
Neigh   | 0          | 0          | 0          |   0.0 |  0.00
Comm    | 0.006326   | 0.0089499  | 0.011552   |   1.9 |  5.57
Output  | 0          | 0          | 0          |   0.0 |  0.00
Modify  | 0          | 0          | 0          |   0.0 |  0.00
Other   |            | 0.0008828  |            |       |  0.55

Nlocal:    84 ave 88 max 79 min
Histogram: 1 1 0 2 1 1 1 3 1 1
Nghost:    2604.58 ave 2628 max 2577 min
Histogram: 2 1 1 2 0 0 1 1 0 4
Neighs:    18635 ave 19369 max 17489 min
Histogram: 2 0 0 1 1 1 1 1 3 2

Total # of neighbors = 223620
Ave neighs/atom = 221.845
Neighbor list builds = 0
Dangerous builds = 0
  triclinic box = (0 0 0) to (23.3007 23.3007 23.3007) with tilt (0 0 0.077661)
WARNING: Resetting reneighboring criteria during minimization (../min.cpp:168)
Ewald initialization ...
  G vector (1/distance) = 0.365055
  estimated absolute RMS force accuracy = 1.94166e-05
  estimated relative force accuracy = 1.34841e-06
  KSpace vectors: actual max1d max3d = 2081 10 4630
                  kxmax kymax kzmax  = 10 10 10
Memory usage per processor = 4.56229 Mbytes
Step Temp E_pair E_mol TotEng Press 
    1081           10   -18273.858            0   -18272.556   -6500.5444 
    1099           10   -18273.889            0   -18272.587   -6569.6315 
Loop time of 0.423393 on 12 procs for 18 steps with 1008 atoms

99.7% CPU use with 12 MPI tasks x no OpenMP threads

Minimization stats:
  Stopping criterion = linesearch alpha is zero
  Energy initial, next-to-last, final = 
        -18273.8578854     -18273.8886763     -18273.8886763
  Force two-norm initial, final = 0.835496 0.077554
  Force max component initial, final = 0.0825166 0.009661
  Final line search alpha, max atom move = 1.90735e-06 1.84269e-08
  Iterations, force evaluations = 18 141

MPI task timing breakdown:
Section |  min time  |  avg time  |  max time  |%varavg| %total
---------------------------------------------------------------
Pair    | 0.14714    | 0.1573     | 0.1769     |   2.1 | 37.15
Kspace  | 0.21974    | 0.24053    | 0.24587    |   1.4 | 56.81
Neigh   | 0          | 0          | 0          |   0.0 |  0.00
Comm    | 0.016675   | 0.023282   | 0.030506   |   3.0 |  5.50
Output  | 0          | 0          | 0          |   0.0 |  0.00
Modify  | 0          | 0          | 0          |   0.0 |  0.00
Other   |            | 0.002281   |            |       |  0.54

Nlocal:    84 ave 88 max 79 min
Histogram: 1 1 0 2 1 1 1 3 1 1
Nghost:    2604.58 ave 2628 max 2577 min
Histogram: 2 1 1 2 0 0 1 1 0 4
Neighs:    18635.4 ave 19371 max 17489 min
Histogram: 2 0 0 1 1 1 1 1 3 2

Total # of neighbors = 223625
Ave neighs/atom = 221.85
Neighbor list builds = 0
Dangerous builds = 0
  triclinic box = (0 0 0) to (23.3007 23.3007 23.3007) with tilt (0 0 0.116503)
WARNING: Resetting reneighboring criteria during minimization (../min.cpp:168)
Ewald initialization ...
  G vector (1/distance) = 0.365055
  estimated absolute RMS force accuracy = 1.94166e-05
  estimated relative force accuracy = 1.34841e-06
  KSpace vectors: actual max1d max3d = 2079 10 4630
                  kxmax kymax kzmax  = 10 10 10
Memory usage per processor = 4.56229 Mbytes
Step Temp E_pair E_mol TotEng Press 
    1099           10    -18273.83            0   -18272.528   -6487.4253 
    1100           10   -18273.855            0   -18272.553   -6511.1408 
    1119           10   -18273.894            0   -18272.592   -6588.6365 
Loop time of 0.237438 on 12 procs for 20 steps with 1008 atoms

99.9% CPU use with 12 MPI tasks x no OpenMP threads

Minimization stats:
  Stopping criterion = linesearch alpha is zero
  Energy initial, next-to-last, final = 
         -18273.830024     -18273.8936074     -18273.8936074
  Force two-norm initial, final = 1.25351 0.0957248
  Force max component initial, final = 0.123747 0.00848279
  Final line search alpha, max atom move = 9.53674e-07 8.08982e-09
  Iterations, force evaluations = 20 79

MPI task timing breakdown:
Section |  min time  |  avg time  |  max time  |%varavg| %total
---------------------------------------------------------------
Pair    | 0.08337    | 0.089038   | 0.098456   |   1.4 | 37.50
Kspace  | 0.12407    | 0.13411    | 0.13799    |   0.9 | 56.48
Neigh   | 0          | 0          | 0          |   0.0 |  0.00
Comm    | 0.0092118  | 0.012837   | 0.016634   |   2.3 |  5.41
Output  | 2.408e-05  | 2.5451e-05 | 3.2902e-05 |   0.0 |  0.01
Modify  | 0          | 0          | 0          |   0.0 |  0.00
Other   |            | 0.001426   |            |       |  0.60

Nlocal:    84 ave 88 max 79 min
Histogram: 1 1 0 2 1 1 1 3 1 1
Nghost:    2604.58 ave 2628 max 2577 min
Histogram: 2 1 1 2 0 0 1 1 0 4
Neighs:    18638.1 ave 19375 max 17488 min
Histogram: 2 0 0 1 1 1 1 1 3 2

Total # of neighbors = 223657
Ave neighs/atom = 221.882
Neighbor list builds = 0
Dangerous builds = 0
Total wall time: 0:00:19
