ITEM: TIMESTEP
0
ITEM: NUMBER OF ATOMS
1008
ITEM: BOX BOUNDS xy xz yz pp pp pp
0.0 23.3006801605 0.0
0.0 23.3006801605 0.0
0.0 23.3006801605 0.0
ITEM: ATOMS id type x y z
1 1 4.123431682586670 -7.085394382476807 -8.075767517089844 
2 1 0.084536008536816 6.201814174652100 -1.312789320945740 
3 1 -10.979610443115234 5.540683746337891 -3.214791297912598 
4 1 -1.364220380783081 3.160775661468506 -1.400895833969116 
5 1 5.915561199188232 -11.636359214782715 -11.459347724914551 
6 1 0.056564752012491 -2.370117902755737 10.274783134460449 
7 1 8.051464080810547 0.118771292269230 -3.330180406570435 
8 1 -4.043552875518799 -1.232094168663025 -4.654282569885254 
9 1 -9.717017173767090 10.313687324523926 -1.600153684616089 
10 1 5.214297771453857 -0.234714344143867 -9.709967613220215 
11 1 9.666043281555176 2.112478971481323 7.070338726043701 
12 1 9.102781295776367 -2.854260921478271 4.571117401123047 
13 1 0.787632167339325 3.362020254135132 9.469676971435547 
14 1 -6.754419803619385 4.420945644378662 -1.184752225875854 
15 1 -5.329172611236572 -3.905462980270386 5.425582885742188 
16 1 2.881839275360107 -9.058942794799805 4.459589958190918 
17 1 -10.426696777343750 3.679708003997803 5.805928230285645 
18 1 -9.579072952270508 2.216090917587280 -2.262489795684814 
19 1 -0.868345141410828 -1.653057694435120 4.851074695587158 
20 1 -10.196842193603516 -2.567504167556763 8.333181381225586 
21 1 10.871340751647949 -5.672340869903564 5.236763954162598 
22 1 0.081298492848873 -7.265756607055664 -3.396867275238037 
23 1 -5.793802738189697 -7.142656326293945 7.327617645263672 
24 1 7.866280078887939 4.808936595916748 9.027136802673340 
25 1 7.073117256164551 -2.507750034332275 9.318375587463379 
26 1 -5.636137485504150 6.780385971069336 6.865906715393066 
27 1 8.092207908630371 -10.811783790588379 2.406474828720093 
28 1 0.347566545009613 10.306122779846191 6.169131278991699 
29 1 -3.045464038848877 -11.044363021850586 -4.635935306549072 
30 1 -6.053273677825928 3.015010833740234 -7.341897010803223 
31 1 -1.353404879570007 5.151607990264893 -7.460658073425293 
32 1 -11.635760307312012 6.927583217620850 6.154566764831543 
33 1 4.575175762176514 6.020556449890137 1.331872344017029 
34 1 2.089267253875732 3.346522808074951 0.148794531822205 
35 1 0.398161828517914 -1.605923295021057 -5.487868785858154 
36 1 -10.500439643859863 -11.351057052612305 10.235449790954590 
37 1 11.529481887817383 -0.623539805412292 5.599431037902832 
38 1 -4.618156909942627 1.392847299575806 -1.512203454971313 
39 1 4.454456806182861 -4.087325096130371 -6.160641193389893 
40 1 -7.250599384307861 -4.580496788024902 2.444225311279297 
41 1 -3.233245372772217 -6.879060745239258 -5.223528861999512 
42 1 3.147507905960083 -10.281877517700195 -9.867532730102539 
43 1 -8.453513145446777 5.313728332519531 -9.087083816528320 
44 1 -2.320964097976685 -8.980878829956055 -1.791000247001648 
45 1 -8.381704330444336 10.750586509704590 7.676683902740479 
46 1 0.763945937156677 9.381448745727539 9.790566444396973 
47 1 7.320453643798828 -9.007205963134766 -4.456263065338135 
48 1 4.900288581848145 -8.899096488952637 8.795247077941895 
49 1 3.557142496109009 11.536753654479980 -5.781726360321045 
50 1 -10.700305938720703 -5.676609516143799 2.163205385208130 
51 1 -5.979659557342529 10.954121589660645 5.176742553710938 
52 1 -11.008012771606445 -0.596079826354980 -0.904020965099335 
53 1 -1.933703422546387 0.980212450027466 1.027901768684387 
54 1 -1.367860078811646 -0.617542386054993 -2.224585056304932 
55 1 3.619054555892944 -4.165216445922852 9.921938896179199 
56 1 3.019428491592407 8.270419120788574 -4.117940425872803 
57 1 6.827159881591797 -5.743640422821045 -10.532970428466797 
58 1 3.734524011611938 5.402317047119141 -1.833978176116943 
59 1 3.957345962524414 9.306052207946777 -8.838926315307617 
60 1 0.515298485755920 5.309761524200439 3.091046094894409 
61 1 2.477780580520630 0.856503307819366 -7.301208019256592 
62 1 8.550344467163086 7.588448524475098 -5.983674526214600 
63 1 -1.740108251571655 -5.539655208587646 -0.438762456178665 
64 1 -5.040212154388428 -6.481081008911133 0.592718183994293 
65 1 8.832897186279297 6.080408573150635 -2.720877408981323 
66 1 0.263675183057785 -3.328936100006104 -8.871975898742676 
67 1 5.458274364471436 -3.801892518997192 1.860378623008728 
68 1 9.628329277038574 7.369040012359619 10.913156509399414 
69 1 -11.510489463806152 -9.679744720458984 -2.356106519699097 
70 1 -6.796434879302979 -2.927270650863647 -6.602251529693604 
71 1 -0.974825859069824 9.635040283203125 -6.103215217590332 
72 1 3.787559509277344 1.096092820167542 2.588896751403809 
73 1 -7.435709953308105 0.414420276880264 -4.941608428955078 
74 1 -3.419637203216553 4.519802570343018 -10.311510086059570 
75 1 -10.566409111022949 -6.071608066558838 10.871318817138672 
76 1 3.626171350479126 10.559461593627930 3.814396381378174 
77 1 3.345487594604492 10.093890190124512 -1.391149878501892 
78 1 10.749097824096680 11.201427459716797 0.227727964520454 
79 1 4.039037704467773 -9.789583206176758 -2.838505983352661 
80 1 10.104328155517578 0.654609203338623 -9.602291107177734 
81 1 -10.127351760864258 1.053090810775757 8.557412147521973 
82 1 1.796198487281799 -6.476999282836914 0.065635412931442 
83 1 -2.533727884292603 9.405448913574219 0.255573868751526 
84 1 1.977069973945618 -0.533592641353607 -10.506857872009277 
85 1 -7.839591503143311 -3.046003818511963 10.769554138183594 
86 1 -8.372606277465820 9.527753829956055 1.698659062385559 
87 1 7.686190128326416 8.269370079040527 8.050327301025391 
88 1 -2.774617433547974 1.824485659599304 -6.537729740142822 
89 1 -2.911486148834229 5.493630409240723 4.824046134948730 
90 1 9.675302505493164 -4.248457431793213 -8.630065917968750 
91 1 3.336774826049805 11.582521438598633 7.019427776336670 
92 1 3.599452972412109 1.566986918449402 -3.041343450546265 
93 1 -7.097393512725830 8.095793724060059 10.080836296081543 
94 1 -8.693445205688477 7.929287910461426 5.081579208374023 
95 1 -8.681524276733398 10.191499710083008 -10.476854324340820 
96 1 5.846270561218262 4.727141857147217 -9.600370407104492 
97 1 -2.144480466842651 -9.431273460388184 9.821452140808105 
98 1 10.591233253479004 -7.403307437896729 -0.048296622931957 
99 1 0.190550193190575 -7.120093822479248 9.934541702270508 
100 1 -7.066673278808594 8.091259956359863 -1.981873154640198 
101 1 4.087337493896484 -1.020270466804504 5.673487663269043 
102 1 6.674229621887207 2.108783006668091 11.129814147949219 
103 1 0.487327992916107 -9.847229003906250 7.290733814239502 
104 1 -10.299409866333008 1.011330246925354 -11.128272056579590 
105 1 7.271554946899414 11.163428306579590 -5.590341091156006 
106 1 -9.647768974304199 -1.840062260627747 -4.218245506286621 
107 1 -5.209959983825684 -4.894450187683105 10.179426193237305 
108 1 -1.658240318298340 6.215652465820312 -4.410223484039307 
109 1 -10.450446128845215 8.115943908691406 -8.043830871582031 
110 1 -1.160665392875671 6.318087577819824 10.784192085266113 
111 1 -1.719937562942505 7.764918804168701 -9.324974060058594 
112 1 7.595522403717041 -7.533719062805176 3.977656602859497 
113 1 11.141800880432129 0.576123654842377 -4.705884933471680 
114 1 11.338374137878418 8.933044433593750 -4.372220993041992 
115 1 6.726639747619629 3.505131721496582 -3.056147336959839 
116 1 -7.973424434661865 -7.646866798400879 4.204558372497559 
117 1 -2.280745506286621 -3.805958747863770 7.634496212005615 
118 1 -3.131997585296631 9.144396781921387 6.293213367462158 
119 1 3.501038074493408 -6.949733734130859 -11.587637901306152 
120 1 11.186566352844238 9.623765945434570 8.675945281982422 
121 1 9.882850646972656 4.123768329620361 -5.640433788299561 
122 1 -6.580220699310303 11.240103721618652 -3.987160444259644 
123 1 11.479297637939453 4.280068397521973 8.963635444641113 
124 1 7.501554965972900 -11.434289932250977 8.698706626892090 
125 1 -7.201779365539551 0.617328286170959 11.135097503662109 
126 1 -9.866101264953613 1.446553826332092 3.106457233428955 
127 1 -10.638228416442871 2.693482398986816 -7.565332412719727 
128 1 -3.095935583114624 -0.006370074115694 7.378094196319580 
129 1 2.622469425201416 -6.242506027221680 7.061612129211426 
130 1 -3.903096914291382 -4.361996650695801 -8.004061698913574 
131 1 -3.654577016830444 6.281113147735596 -1.475073337554932 
132 1 4.901027679443359 -7.755903244018555 1.372241139411926 
133 1 -5.426451206207275 7.496921062469482 -9.688553810119629 
134 1 -7.890017509460449 0.254133939743042 -8.470767974853516 
135 1 7.326725006103516 9.573097229003906 -8.900831222534180 
136 1 -8.295890808105469 -8.820255279541016 8.891510009765625 
137 1 -1.586560249328613 -4.085764884948730 -3.625862598419189 
138 1 -7.316232204437256 -0.810717225074768 1.664059877395630 
139 1 -5.148189067840576 -10.817934036254883 8.184987068176270 
140 1 -4.516981124877930 3.750266551971436 -3.856145620346069 
141 1 8.506025314331055 -9.053553581237793 -10.599654197692871 
142 1 1.558286309242249 8.338194847106934 1.401259541511536 
143 1 0.254774451255798 1.776861071586609 3.934632062911987 
144 1 8.714211463928223 10.982356071472168 -2.360252141952515 
145 1 7.352067947387695 -9.155322074890137 -0.838203668594360 
146 1 -11.346963882446289 -2.619396209716797 -11.346020698547363 
147 1 -1.907527446746826 1.161068916320801 10.485043525695801 
148 1 5.689133644104004 0.855672001838684 -0.504311382770538 
149 1 -4.760495662689209 -4.697525024414062 -2.675966978073120 
150 1 6.526483058929443 -2.450837850570679 -1.467777252197266 
151 1 9.560310363769531 10.896512031555176 -11.449858665466309 
152 1 1.066776871681213 -3.038107395172119 -1.130443572998047 
153 1 -1.376839041709900 -2.765645742416382 1.788436412811279 
154 1 5.156732559204102 6.921224117279053 -6.718577384948730 
155 1 9.356197357177734 -1.712160825729370 0.830363929271698 
156 1 -6.516312599182129 2.878491401672363 1.839068174362183 
157 1 5.975913524627686 1.996801018714905 7.517399787902832 
158 1 9.710782051086426 -0.069929555058479 10.208049774169922 
159 1 -7.650685787200928 6.042760372161865 2.123168706893921 
160 1 -3.540307044982910 4.365337848663330 8.989076614379883 
161 1 -6.777663707733154 0.618333697319031 5.052821636199951 
162 1 -3.510690450668335 9.255743980407715 9.820462226867676 
163 1 11.596106529235840 -7.303862571716309 -9.234683036804199 
164 1 -2.017397165298462 -4.894468307495117 -11.232044219970703 
165 1 7.658041954040527 4.006566047668457 0.287467628717422 
166 1 -7.576521396636963 10.705700874328613 -7.092060565948486 
167 1 -5.600812435150146 -8.536050796508789 -3.180721998214722 
168 1 8.146109580993652 -2.338697671890259 -10.369084358215332 
169 1 1.078106880187988 -8.937973976135254 -6.865900993347168 
170 1 -0.210437268018723 9.725198745727539 -2.538597822189331 
171 1 6.957849025726318 -5.781637668609619 8.983996391296387 
172 1 -8.600739479064941 7.445081710815430 -5.476772785186768 
173 1 3.459969043731689 -2.295725584030151 -3.367802143096924 
174 1 3.062317609786987 -5.742132186889648 3.652557373046875 
175 1 -11.296116828918457 -9.477806091308594 6.971664905548096 
176 1 -4.958491802215576 6.352404594421387 -6.213105201721191 
177 1 9.021712303161621 -4.971025466918945 1.812663435935974 
178 1 4.799623489379883 3.957088708877563 4.581113338470459 
179 1 6.122827529907227 -10.122239112854004 -7.906748771667480 
180 1 -11.133485794067383 4.597901344299316 -10.971662521362305 
181 1 -10.980294227600098 -1.895320892333984 -7.861747264862061 
182 1 2.345478773117065 -9.964524269104004 0.292599916458130 
183 1 3.958209276199341 8.117035865783691 8.235507965087891 
184 1 -3.755179405212402 -8.377850532531738 -10.343581199645996 
185 1 -7.286624908447266 -7.106465816497803 -10.983170509338379 
186 1 0.324289083480835 1.606668710708618 -4.432862758636475 
187 1 -5.294714450836182 -1.873356699943542 -10.212789535522461 
188 1 9.394746780395508 8.213707923889160 0.329875022172928 
189 1 9.531357765197754 6.237989425659180 -8.774946212768555 
190 1 2.447053194046021 -10.462918281555176 10.274296760559082 
191 1 -6.475519180297852 4.453018665313721 11.195730209350586 
192 1 10.517910957336426 10.645026206970215 -7.226111412048340 
193 1 -0.497822433710098 11.515985488891602 1.950010299682617 
194 1 2.333138942718506 7.206586360931396 -10.917794227600098 
195 1 -8.968415260314941 -8.334157943725586 -4.432121753692627 
196 1 5.792514324188232 -4.538995265960693 5.545280933380127 
197 1 -8.412359237670898 -4.797117710113525 -3.483774900436401 
198 1 7.554698944091797 2.092497348785400 -7.891339778900146 
199 1 8.887525558471680 -1.260925412178040 -6.718833923339844 
200 1 10.819130897521973 -3.988866806030273 -1.319954037666321 
201 1 -9.566470146179199 -11.011225700378418 4.338778972625732 
202 1 3.865915298461914 -3.729143619537354 -9.781533241271973 
203 1 8.330052375793457 2.976212739944458 3.770023822784424 
204 1 -8.487638473510742 -7.071221351623535 -0.447974145412445 
205 1 -6.770152091979980 2.502355575561523 8.304422378540039 
206 1 10.274421691894531 5.745037555694580 2.175449609756470 
207 1 -6.449594974517822 -6.451832771301270 -7.461606502532959 
208 1 -2.236730337142944 -10.501856803894043 -8.103934288024902 
209 1 -0.060793176293373 -8.142429351806641 2.451019763946533 
210 1 5.380113124847412 -0.430482059717178 -5.934609889984131 
211 1 5.902189731597900 7.876836776733398 11.452176094055176 
212 1 -4.162747383117676 -0.985118091106415 3.355685710906982 
213 1 2.357444047927856 5.654734611511230 6.436228275299072 
214 1 6.149975299835205 -10.339972496032715 5.502169609069824 
215 1 -1.719534397125244 10.959972381591797 -11.144918441772461 
216 1 6.305108070373535 9.281930923461914 1.780655264854431 
217 1 -2.311628103256226 -1.057973742485046 -7.941401481628418 
218 1 4.935403347015381 3.245195865631104 -6.140369892120361 
219 1 7.124468326568604 -6.129712581634521 -6.709914207458496 
220 1 -6.486018657684326 -1.340620398521423 7.954940319061279 
221 1 -1.025027275085449 8.196490287780762 3.484711408615112 
222 1 -1.968715548515320 -7.411476135253906 6.713912487030029 
223 2 -5.226334571838379 -1.211876869201660 1.646770358085632 
224 2 -9.117933273315430 8.450182914733887 -1.378864645957947 
225 2 10.245425224304199 9.465550422668457 4.581175804138184 
226 2 6.416120052337646 2.632374286651611 -0.349470973014832 
227 2 -4.383156776428223 -8.134586334228516 1.122403979301453 
228 2 9.202509880065918 -2.796520233154297 -5.444026947021484 
229 2 9.214877128601074 -8.806377410888672 -5.220526695251465 
230 2 -8.177284240722656 7.667814254760742 1.061662793159485 
231 2 -6.092492103576660 9.531880378723145 -3.158841371536255 
232 2 11.001229286193848 10.950883865356445 10.225787162780762 
233 2 -5.797863483428955 2.693770647048950 -0.549386918544769 
234 2 6.587338447570801 -10.725045204162598 3.691808700561523 
235 2 7.312898159027100 -4.364714145660400 -2.218243360519409 
236 2 10.713716506958008 -5.916158199310303 -1.323677778244019 
237 2 9.156367301940918 10.114128112792969 -8.485572814941406 
238 2 -4.979794979095459 -10.374842643737793 -10.899643898010254 
239 2 11.027091026306152 -3.572745323181152 -7.421356678009033 
240 2 -3.475702047348022 8.027321815490723 -9.911058425903320 
241 2 7.472777366638184 7.666875839233398 10.191957473754883 
242 2 6.081830024719238 3.520955324172974 -7.897645950317383 
243 2 -9.528512954711914 -11.327814102172852 -9.641016960144043 
244 2 -2.830332994461060 8.725790977478027 4.275359153747559 
245 2 -0.952303409576416 9.485566139221191 -9.922888755798340 
246 2 4.382171630859375 -10.471713066101074 -6.959710121154785 
247 2 6.365533351898193 -5.869917392730713 -8.578595161437988 
248 2 9.311194419860840 10.023321151733398 -0.649908185005188 
249 2 -6.311273574829102 -9.017506599426270 8.173468589782715 
250 2 -6.875040531158447 -10.927142143249512 -8.036663055419922 
251 2 -3.923044919967651 10.164665222167969 -1.110563635826111 
252 2 -11.346832275390625 -10.069889068603516 11.461274147033691 
253 2 1.832084894180298 4.112322807312012 7.765632152557373 
254 2 -9.122018814086914 1.655124783515930 -8.102224349975586 
255 2 -11.519543647766113 7.432317733764648 -3.236305952072144 
256 2 -6.844098567962646 10.661590576171875 1.825227856636047 
257 2 10.906115531921387 0.670062124729156 -0.590941131114960 
258 2 10.464776039123535 2.590438604354858 -4.353219985961914 
259 2 11.539855957031250 8.499461174011230 7.223635196685791 
260 2 11.176588058471680 10.854801177978516 -10.356642723083496 
261 2 4.608145713806152 -3.481423616409302 -7.990875720977783 
262 2 4.562954902648926 5.282903194427490 3.118363618850708 
263 2 -0.390884757041931 -8.670693397521973 -2.173217296600342 
264 2 -3.772636175155640 -5.248825550079346 11.407575607299805 
265 2 -3.675091743469238 0.579009771347046 0.018207838758826 
266 2 -3.704128980636597 -3.906216382980347 6.473920822143555 
267 2 -2.427452325820923 -10.554161071777344 -2.889228105545044 
268 2 -4.324178218841553 8.138075828552246 -5.181467533111572 
269 2 9.272698402404785 7.302234649658203 -1.337146997451782 
270 2 -9.782331466674805 10.658177375793457 11.351890563964844 
271 2 -7.845351219177246 -8.968247413635254 -10.245565414428711 
272 2 3.252670049667358 -4.674409389495850 -11.516023635864258 
273 2 -8.674883842468262 -5.944790840148926 -1.935016036033630 
274 2 10.218554496765137 -3.089866876602173 -10.280520439147949 
275 2 -9.078939437866211 -0.114494860172272 2.137343645095825 
276 2 5.467979907989502 -1.051523447036743 -0.649110972881317 
277 2 7.834053039550781 4.518109321594238 -1.675807595252991 
278 2 -3.419760942459106 -0.066216155886650 -6.199786663055420 
279 2 7.350560188293457 8.407638549804688 0.253454238176346 
280 2 -4.684041023254395 -10.904963493347168 1.293373107910156 
281 2 2.568204641342163 -9.685504913330078 -1.540328621864319 
282 2 -10.176526069641113 -3.752934217453003 -3.836761951446533 
283 2 -9.750861167907715 -8.342696189880371 7.534309864044189 
284 2 -8.509292602539062 1.214457273483276 4.446458339691162 
285 2 9.067813873291016 2.313406229019165 -9.585726737976074 
286 2 7.703490257263184 -2.452784776687622 11.125345230102539 
287 2 -2.352343082427979 -1.759360313415527 3.458767414093018 
288 2 9.283676147460938 2.689430952072144 -0.187747463583946 
289 2 -6.692829132080078 6.413131713867188 11.053927421569824 
290 2 -8.616193771362305 9.353693962097168 6.465807437896729 
291 2 11.188372611999512 7.206294059753418 -8.462120056152344 
292 2 1.992384910583496 6.070120811462402 -1.363482236862183 
293 2 -7.918137073516846 -3.264844655990601 -4.943155765533447 
294 2 -3.220716476440430 0.689611911773682 2.583786964416504 
295 2 -10.335683822631836 -6.082763195037842 -8.464269638061523 
296 2 -4.479741573333740 6.489397525787354 5.319468975067139 
297 2 3.529093265533447 -5.728912830352783 -9.208195686340332 
298 2 -0.951281130313873 11.185946464538574 -7.641906738281250 
299 2 -8.761526107788086 -10.232640266418457 -4.195842266082764 
300 2 -2.199254989624023 7.376359939575195 6.235124588012695 
301 2 1.531912446022034 -10.853130340576172 -6.292070388793945 
302 2 -8.229905128479004 1.833291411399841 -3.725924968719482 
303 2 -7.431664943695068 -6.113737106323242 -9.262178421020508 
304 2 -6.796982288360596 -3.939038753509521 9.481331825256348 
305 2 -1.804287672042847 0.916740596294403 -8.180566787719727 
306 2 -2.090661764144897 -9.681437492370605 -0.060546774417162 
307 2 -2.609911203384399 3.973639488220215 3.546164035797119 
308 2 2.776638984680176 -0.396239757537842 1.685119390487671 
309 2 2.203607797622681 -3.863388299942017 -2.684473752975464 
310 2 -9.272168159484863 -4.018800258636475 7.109713077545166 
311 2 7.504269599914551 -11.501657485961914 6.401992797851562 
312 2 -5.116086006164551 -2.266215801239014 -5.950601100921631 
313 2 5.799984931945801 7.889893054962158 7.331891059875488 
314 2 1.441762566566467 -6.151211738586426 -4.318680763244629 
315 2 3.997064590454102 3.976102352142334 -9.786173820495605 
316 2 -0.019225275143981 8.942932128906250 4.911301612854004 
317 2 1.015340924263000 -11.101032257080078 1.054751157760620 
318 2 -8.029118537902832 -3.505224466323853 -7.895388126373291 
319 2 6.004226207733154 -10.773336410522461 9.788897514343262 
320 2 -11.139539718627930 -11.105918884277344 0.871263742446899 
321 2 -3.382297277450562 -4.888070106506348 -4.227513790130615 
322 2 1.710993409156799 7.377289295196533 -5.320214748382568 
323 2 -8.593658447265625 2.030833721160889 8.038595199584961 
324 2 10.218559265136719 -8.670784950256348 -9.360843658447266 
325 2 -4.987575531005859 -10.284044265747070 6.272538185119629 
326 2 11.206169128417969 -0.860741555690765 -9.140823364257812 
327 2 -10.662226676940918 -3.978789091110229 -0.914932131767273 
328 2 -2.167796850204468 2.978837013244629 0.463913023471832 
329 2 8.428189277648926 11.446528434753418 10.342201232910156 
330 2 7.156082630157471 10.046571731567383 8.472624778747559 
331 2 9.731945991516113 6.738672256469727 5.565237998962402 
332 2 -7.074888229370117 -3.873006582260132 4.320353031158447 
333 2 -2.366760730743408 -7.951051235198975 -6.614885330200195 
334 2 -6.391623020172119 1.558859705924988 -8.883116722106934 
335 2 3.050612211227417 6.093560695648193 -3.595635652542114 
336 2 5.941548824310303 -3.692437648773193 -0.070250511169434 
337 2 7.820211410522461 -10.956171035766602 -1.318252563476562 
338 2 -1.009429693222046 -5.952648639678955 10.786581993103027 
339 2 -9.589912414550781 0.749200940132141 -1.033823847770691 
340 2 -9.017661094665527 -6.305211544036865 -4.497107505798340 
341 2 7.234297752380371 9.771099090576172 -2.485834598541260 
342 2 7.874923706054688 3.796620130538940 10.691459655761719 
343 2 -11.262884140014648 5.271277904510498 5.285659790039062 
344 2 8.400626182556152 7.736014366149902 -8.086268424987793 
345 2 -4.961502075195312 4.743730545043945 -7.395343303680420 
346 2 -11.174941062927246 2.962177753448486 -1.156935572624207 
347 2 4.914846420288086 -2.790649890899658 5.514373302459717 
348 2 10.467494964599609 4.841310024261475 -2.380844831466675 
349 2 4.752104759216309 7.827266693115234 9.939431190490723 
350 2 9.508520126342773 -11.005615234375000 1.155975341796875 
351 2 -5.005272388458252 -7.374789714813232 -6.284437179565430 
352 2 4.936010837554932 3.158243656158447 11.049546241760254 
353 2 -5.853014945983887 -11.012485504150391 3.874949932098389 
354 2 1.153772950172424 -4.868676662445068 6.328843593597412 
355 2 3.529014587402344 -10.644868850708008 8.665454864501953 
356 2 2.438845396041870 -5.923091888427734 1.807933092117310 
357 2 3.532782554626465 -2.339376688003540 10.284560203552246 
358 2 1.976845979690552 -1.938716053962708 -4.509491443634033 
359 2 -4.269659996032715 -8.926426887512207 -1.892230272293091 
360 2 9.845526695251465 2.116342544555664 3.028946638107300 
361 2 -11.583390235900879 -5.974571704864502 7.050865650177002 
362 2 3.338361024856567 11.643713951110840 -0.058302022516727 
363 2 8.769858360290527 -2.379116773605347 -8.346040725708008 
364 2 -8.484859466552734 -3.735832691192627 -10.935782432556152 
365 2 -9.480398178100586 6.744458675384521 6.645229816436768 
366 2 -4.493621826171875 11.130377769470215 -4.018458366394043 
367 2 -7.593929290771484 4.401404857635498 -10.618570327758789 
368 2 -0.708908855915070 -5.613296031951904 -2.326170206069946 
369 2 0.109261915087700 -7.454130172729492 -9.420017242431641 
370 2 -2.275761604309082 8.748244285583496 -7.608249187469482 
371 2 -8.228964805603027 -5.990793228149414 -6.835075855255127 
372 2 -4.120443344116211 -7.507675647735596 3.875575065612793 
373 2 -2.660201787948608 -1.875794172286987 8.088552474975586 
374 2 11.268313407897949 5.204123020172119 -4.787672042846680 
375 2 -1.615930318832397 -3.266469001770020 10.819217681884766 
376 2 -0.195285052061081 -6.466986656188965 0.436210185289383 
377 2 4.551282405853271 -2.186263799667358 -5.482901573181152 
378 2 10.243557929992676 -3.787474870681763 -3.149140119552612 
379 2 6.896090030670166 -9.957688331604004 -11.185277938842773 
380 2 -11.564618110656738 -8.268568992614746 5.521183967590332 
381 2 -6.889864921569824 4.553892135620117 3.191544055938721 
382 2 10.440616607666016 9.670019149780273 1.554525136947632 
383 2 -5.376818180084229 -0.379688203334808 -1.500851035118103 
384 2 -0.465118557214737 -8.697672843933105 10.992257118225098 
385 2 -9.935194969177246 8.601274490356445 -9.882757186889648 
386 2 -7.294176578521729 4.322370052337646 -2.976655244827271 
387 2 -5.057181358337402 3.178412914276123 8.500549316406250 
388 2 7.055140495300293 6.873268127441406 -2.691901206970215 
389 2 -7.946535110473633 7.883644104003906 -3.727751970291138 
390 2 4.130883216857910 10.054169654846191 7.733204841613770 
391 2 -10.801213264465332 -0.666104912757874 8.953341484069824 
392 2 1.953596830368042 5.311376094818115 -6.928878784179688 
393 2 -7.339756011962891 -1.035809636116028 -6.551917076110840 
394 2 4.736947059631348 -0.087022311985493 3.920304775238037 
395 2 -0.974297404289246 5.222200393676758 1.715662598609924 
396 2 10.900458335876465 -1.971269488334656 4.183144092559814 
397 2 -6.482538700103760 3.628050088882446 -5.486030578613281 
398 2 -1.116269111633301 -1.085962653160095 -6.452238559722900 
399 2 -3.663998365402222 -9.787534713745117 8.777899742126465 
400 2 -0.454115629196167 6.912802219390869 -8.026222229003906 
401 2 9.810678482055664 -4.586909770965576 3.726074218750000 
402 2 -11.015597343444824 -4.477747917175293 4.956712722778320 
403 2 -6.486147403717041 -4.984536170959473 -3.444976329803467 
404 2 3.661123037338257 -3.210716962814331 1.751438260078430 
405 2 -8.300089836120605 -4.937310695648193 0.622767925262451 
406 2 2.772422313690186 0.490118891000748 6.237952709197998 
407 2 5.740220546722412 -0.180132269859314 6.480469226837158 
408 2 -10.212770462036133 -6.649894237518311 0.485514849424362 
409 2 5.185619354248047 -5.824980258941650 1.170225381851196 
410 2 5.561038017272949 -4.166079044342041 -10.604022026062012 
411 2 1.127309560775757 -2.223740577697754 0.729067087173462 
412 2 -0.958355844020844 -9.936494827270508 2.331630468368530 
413 2 -4.928204536437988 7.571547508239746 -7.751253128051758 
414 2 -7.521521568298340 -1.448817372322083 -0.284282535314560 
415 2 3.891074180603027 -5.444962978363037 5.672653198242188 
416 2 9.609951972961426 -1.731815457344055 6.272079467773438 
417 2 8.317249298095703 -4.185066699981689 9.008572578430176 
418 2 -6.319702148437500 -10.894200325012207 -5.585243701934814 
419 2 -1.234386324882507 -0.777813971042633 10.393584251403809 
420 2 3.508683919906616 7.724502563476562 -7.601081371307373 
421 2 -10.659554481506348 0.759019017219543 6.724231719970703 
422 2 9.284726142883301 7.270742893218994 -4.233808994293213 
423 2 -2.184472084045410 4.510680675506592 6.272122859954834 
424 2 4.130998134613037 -9.673169136047363 1.292079567909241 
425 2 -0.088360294699669 -11.019781112670898 5.827910423278809 
426 2 -6.730840206146240 -0.571441292762756 3.531531810760498 
427 2 8.041413307189941 -2.079532861709595 -0.402526408433914 
428 2 -2.611413478851318 -1.611801624298096 -1.258493185043335 
429 2 3.886232137680054 2.787330150604248 -4.526587486267090 
430 2 1.651051878929138 -9.761318206787109 -8.751603126525879 
431 2 -5.242986679077148 8.578599929809570 9.910582542419434 
432 2 -11.083293914794922 -9.966306686401367 3.483595132827759 
433 2 -10.609315872192383 8.149381637573242 4.867921829223633 
434 2 6.120086193084717 -5.267314434051514 7.335319995880127 
435 2 -1.679440975189209 -6.353835105895996 5.025254249572754 
436 2 9.931343078613281 0.416864007711411 -2.944372653961182 
437 2 -11.093459129333496 -3.754563808441162 1.985422134399414 
438 2 -4.860268115997314 10.289284706115723 -8.515881538391113 
439 2 -3.335857391357422 -10.131295204162598 3.725278615951538 
440 2 -1.764007925987244 1.856678009033203 4.701038360595703 
441 2 -6.801898956298828 -10.879484176635742 -0.135728701949120 
442 2 1.510553479194641 8.568740844726562 11.426570892333984 
443 2 -0.621015250682831 -9.505446434020996 -7.713716030120850 
444 2 -6.836439609527588 4.589473247528076 0.769696891307831 
445 2 -6.971678733825684 1.429143071174622 -6.473035812377930 
446 2 7.368082046508789 1.391304016113281 4.040540218353271 
447 2 -6.711590766906738 0.638554930686951 9.124843597412109 
448 2 0.181730747222900 3.690650701522827 4.061651229858398 
449 2 9.420220375061035 5.858588695526123 -6.751867771148682 
450 2 11.593699455261230 -6.546445369720459 3.618524551391602 
451 2 0.494278430938721 1.830636739730835 6.008087158203125 
452 2 2.705534696578979 -1.657221317291260 4.437699317932129 
453 2 2.636805772781372 -1.801113247871399 -1.502180099487305 
454 2 -4.556678295135498 3.155214786529541 2.046123266220093 
455 2 10.157524108886719 0.715534269809723 5.843841552734375 
456 2 -6.399612903594971 11.081894874572754 7.132909297943115 
457 2 4.065460681915283 8.108325004577637 -10.505939483642578 
458 2 -3.270717859268188 0.235467106103897 9.393820762634277 
459 2 6.097006797790527 5.347696304321289 9.455276489257812 
460 2 -1.785259962081909 -5.631057262420654 7.562150478363037 
461 2 6.926715850830078 8.351999282836914 -10.313094139099121 
462 2 11.218269348144531 5.825778961181641 7.801798343658447 
463 2 -1.171778321266174 6.289859294891357 4.158047676086426 
464 2 0.501583456993103 -1.631585121154785 6.348326683044434 
465 2 5.463826656341553 1.964803814888000 -2.581031799316406 
466 2 9.756968498229980 -4.526732444763184 6.295535087585449 
467 2 -4.705313205718994 4.677869796752930 10.548268318176270 
468 2 9.609476089477539 -10.660169601440430 -10.691785812377930 
469 2 -8.818551063537598 -9.256914138793945 4.862367153167725 
470 2 -8.842311859130859 -8.982352256774902 0.073452390730381 
471 2 2.408942461013794 -7.251393318176270 5.285753250122070 
472 2 0.425126552581787 0.598816692829132 -10.378498077392578 
473 2 6.727016448974609 -7.383015632629395 -5.249962806701660 
474 2 -2.520428419113159 -6.850459575653076 -9.785033226013184 
475 2 -0.883783280849457 9.872092247009277 -0.720748424530029 