ITEM: TIMESTEP
0
ITEM: NUMBER OF ATOMS
1008
ITEM: BOX BOUNDS xy xz yz pp pp pp
0.0 23.3006801605 0.0
0.0 23.3006801605 0.0
0.0 23.3006801605 0.0
ITEM: ATOMS id type x y z
1 1 4.126092910766602 -7.083699226379395 -8.068467140197754 
2 1 0.090475432574749 6.205357074737549 -1.298975706100464 
3 1 -10.973309516906738 5.545611858367920 -3.230247020721436 
4 1 -1.369928956031799 3.164666175842285 -1.405768156051636 
5 1 5.928318023681641 11.648997306823730 -11.484606742858887 
6 1 0.055284220725298 -2.370128393173218 10.271458625793457 
7 1 8.051661491394043 0.132420152425766 -3.320266723632812 
8 1 -4.045265674591064 -1.233592748641968 -4.654086112976074 
9 1 -9.712866783142090 10.316830635070801 -1.599322795867920 
10 1 5.199787139892578 -0.241351693868637 -9.688664436340332 
11 1 9.642377853393555 2.142260551452637 7.082816600799561 
12 1 9.102432250976562 -2.841736793518066 4.565196037292480 
13 1 0.742670953273773 3.338955402374268 9.478621482849121 
14 1 -6.752881526947021 4.422614097595215 -1.191979169845581 
15 1 -5.326624393463135 -3.906796932220459 5.426279067993164 
16 1 2.892821311950684 -9.073246955871582 4.455788612365723 
17 1 -10.433111190795898 3.688459396362305 5.801873207092285 
18 1 -9.576223373413086 2.214017868041992 -2.273058414459229 
19 1 -0.876888632774353 -1.662832856178284 4.853836059570312 
20 1 -10.201784133911133 -2.559915065765381 8.325419425964355 
21 1 10.863635063171387 -5.666614532470703 5.236813068389893 
22 1 0.082252055406570 -7.258857250213623 -3.403986692428589 
23 1 -5.795460224151611 -7.143010616302490 7.327363014221191 
24 1 7.864620208740234 4.791439056396484 9.052690505981445 
25 1 7.062767982482910 -2.511070013046265 9.326560020446777 
26 1 -5.642969131469727 6.755967617034912 6.873200416564941 
27 1 8.112317085266113 -10.797697067260742 2.404245138168335 
28 1 0.326734393835068 10.306014060974121 6.173191547393799 
29 1 -3.044813871383667 -11.038496017456055 -4.640216350555420 
30 1 -6.059094429016113 3.015977621078491 -7.342956066131592 
31 1 -1.353321790695190 5.150007724761963 -7.447480678558350 
32 1 11.607734680175781 6.905944824218750 6.164700031280518 
33 1 4.604322910308838 6.029222488403320 1.461523294448853 
34 1 2.086907148361206 3.368918895721436 0.140588507056236 
35 1 0.401404559612274 -1.606362223625183 -5.492375850677490 
36 1 -10.507068634033203 -11.354233741760254 10.227407455444336 
37 1 11.519938468933105 -0.602283537387848 5.603507518768311 
38 1 -4.621307849884033 1.389846324920654 -1.520268797874451 
39 1 4.456586360931396 -4.081451892852783 -6.153819561004639 
40 1 -7.237150192260742 -4.585436344146729 2.440789699554443 
41 1 -3.231405973434448 -6.878786087036133 -5.227996826171875 
42 1 3.149368524551392 -10.294315338134766 -9.881958007812500 
43 1 -8.462162017822266 5.320556163787842 -9.079116821289062 
44 1 -2.314445495605469 -8.976497650146484 -1.794712185859680 
45 1 -8.396335601806641 10.743660926818848 7.663104534149170 
46 1 0.815446496009827 9.344946861267090 9.755510330200195 
47 1 7.321225643157959 -9.011821746826172 -4.453212261199951 
48 1 4.918832302093506 -8.916195869445801 8.783569335937500 
49 1 3.555735349655151 11.534043312072754 -5.777391910552979 
50 1 -10.718860626220703 -5.665755271911621 2.178126096725464 
51 1 -6.000553607940674 10.946866989135742 5.169526576995850 
52 1 -10.999382019042969 -0.595688521862030 -0.882607758045197 
53 1 -1.943642377853394 0.972086369991302 1.014676451683044 
54 1 -1.367001295089722 -0.618752181529999 -2.230248689651489 
55 1 3.614916086196899 -4.177340507507324 9.927976608276367 
56 1 3.018265724182129 8.270615577697754 -4.104948520660400 
57 1 6.820445537567139 -5.746016025543213 -10.528875350952148 
58 1 3.759838819503784 5.434079170227051 -1.777786493301392 
59 1 3.952995300292969 9.313593864440918 -8.849626541137695 
60 1 0.437304675579071 5.303541660308838 3.063555479049683 
61 1 2.497968196868896 0.846327543258667 -7.298961639404297 
62 1 8.548082351684570 7.593383789062500 -5.988620758056641 
63 1 -1.730558514595032 -5.533611297607422 -0.439404398202896 
64 1 -5.020781517028809 -6.491668224334717 0.593246102333069 
65 1 8.841950416564941 6.090209007263184 -2.721206426620483 
66 1 0.253668159246445 -3.334590435028076 -8.875511169433594 
67 1 5.452128887176514 -3.776322126388550 1.867586016654968 
68 1 9.578126907348633 7.365610122680664 10.914000511169434 
69 1 -11.501838684082031 -9.664692878723145 -2.363315582275391 
70 1 -6.798655033111572 -2.929048776626587 -6.602124691009521 
71 1 -0.970763564109802 9.636563301086426 -6.101459026336670 
72 1 3.793633699417114 1.181927084922791 2.613907814025879 
73 1 -7.440230846405029 0.409334540367126 -4.944852828979492 
74 1 -3.420684814453125 4.515274524688721 -10.303744316101074 
75 1 -10.568441390991211 -6.070036411285400 10.869519233703613 
76 1 3.665596246719360 10.529130935668945 3.826475858688354 
77 1 3.351109266281128 10.095937728881836 -1.374644875526428 
78 1 10.758872985839844 11.228947639465332 0.213475391268730 
79 1 4.037214279174805 -9.790281295776367 -2.835467576980591 
80 1 10.097704887390137 0.653310418128967 -9.598275184631348 
81 1 -10.124715805053711 1.056629419326782 8.552859306335449 
82 1 1.801304578781128 -6.463034629821777 0.066602095961571 
83 1 -2.545761823654175 9.416455268859863 0.252884298563004 
84 1 1.966099977493286 -0.539478838443756 -10.495954513549805 
85 1 -7.848428249359131 -3.048618793487549 10.769047737121582 
86 1 -8.389296531677246 9.521073341369629 1.726233601570129 
87 1 7.676969528198242 8.261074066162109 7.993246078491211 
88 1 -2.775579690933228 1.821762800216675 -6.531932353973389 
89 1 -2.931107044219971 5.482106685638428 4.812382221221924 
90 1 9.670782089233398 -4.248759746551514 -8.627626419067383 
91 1 3.341074705123901 11.545602798461914 7.008708953857422 
92 1 3.607660055160522 1.567970275878906 -3.038496017456055 
93 1 -7.121044158935547 8.085692405700684 10.076491355895996 
94 1 -8.712882995605469 7.891151905059814 5.089468479156494 
95 1 -8.682130813598633 10.192825317382812 -10.479946136474609 
96 1 5.834504127502441 4.723475933074951 -9.594210624694824 
97 1 -2.143442392349243 -9.439495086669922 9.811438560485840 
98 1 10.586021423339844 -7.397034645080566 -0.045053131878376 
99 1 0.185201957821846 -7.120761394500732 9.931166648864746 
100 1 -7.068778514862061 8.091107368469238 -1.996586084365845 
101 1 4.098289966583252 -0.997722685337067 5.673997402191162 
102 1 6.664680957794189 2.084523200988770 11.155931472778320 
103 1 0.499978214502335 -9.859327316284180 7.283353805541992 
104 1 -10.303210258483887 1.001903653144836 -11.134951591491699 
105 1 7.269084453582764 11.164891242980957 -5.593516826629639 
106 1 -9.654707908630371 -1.841191291809082 -4.210567474365234 
107 1 -5.216883182525635 -4.889653682708740 10.177268981933594 
108 1 -1.652087569236755 6.218560218811035 -4.402866363525391 
109 1 -10.458768844604492 8.119695663452148 -8.046733856201172 
110 1 -1.162892580032349 6.326619625091553 10.795724868774414 
111 1 -1.717143297195435 7.760141372680664 -9.318692207336426 
112 1 7.589330196380615 -7.526502132415771 3.982619762420654 
113 1 11.139610290527344 0.570592463016510 -4.712337493896484 
114 1 11.337517738342285 8.937976837158203 -4.379703521728516 
115 1 6.722888469696045 3.520781993865967 -3.049386024475098 
116 1 -7.970231056213379 -7.647108554840088 4.205989837646484 
117 1 -2.282769441604614 -3.810409784317017 7.639738559722900 
118 1 -3.169434070587158 9.146460533142090 6.274745941162109 
119 1 3.501116037368774 -6.970593929290771 -11.599473953247070 
120 1 11.168562889099121 9.618709564208984 8.667098045349121 
121 1 9.877773284912109 4.130991935729980 -5.645307540893555 
122 1 -6.583810329437256 11.250373840332031 -3.986802339553833 
123 1 11.479918479919434 4.277681350708008 8.975963592529297 
124 1 7.532200336456299 -11.456398010253906 8.679697990417480 
125 1 -7.204727649688721 0.615394890308380 11.131153106689453 
126 1 -9.882780075073242 1.452801585197449 3.096682071685791 
127 1 -10.644781112670898 2.690439224243164 -7.566751480102539 
128 1 -3.089957714080811 -0.010192614980042 7.372063636779785 
129 1 2.631307840347290 -6.254806041717529 7.063706874847412 
130 1 -3.901989936828613 -4.362854480743408 -8.002474784851074 
131 1 -3.657084226608276 6.287909984588623 -1.484000682830811 
132 1 4.899846076965332 -7.750800132751465 1.377013444900513 
133 1 -5.429299831390381 7.493404388427734 -9.692080497741699 
134 1 -7.899721145629883 0.248832195997238 -8.474750518798828 
135 1 7.318130016326904 9.571278572082520 -8.913618087768555 
136 1 -8.303088188171387 -8.821740150451660 8.888809204101562 
137 1 -1.583218574523926 -4.081342220306396 -3.623471975326538 
138 1 -7.321028232574463 -0.813043475151062 1.661478281021118 
139 1 -5.161594390869141 -10.812960624694824 8.178727149963379 
140 1 -4.524664878845215 3.754616498947144 -3.860262870788574 
141 1 8.497735977172852 -9.057184219360352 -10.601261138916016 
142 1 1.575614094734192 8.330908775329590 1.423399090766907 
143 1 0.235006958246231 1.764738082885742 3.925183057785034 
144 1 8.719213485717773 11.003457069396973 -2.374762535095215 
145 1 7.345499992370605 -9.147449493408203 -0.836261153221130 
146 1 -11.357934951782227 -2.621486186981201 -11.342958450317383 
147 1 -1.927282094955444 1.156017303466797 10.541531562805176 
148 1 5.689855098724365 0.874613106250763 -0.485417097806931 
149 1 -4.757428646087646 -4.699913024902344 -2.673409938812256 
150 1 6.525767803192139 -2.433287143707275 -1.454471707344055 
151 1 9.564666748046875 10.892949104309082 -11.451450347900391 
152 1 1.068354129791260 -3.021342039108276 -1.125576853752136 
153 1 -1.384043693542480 -2.769109487533569 1.790526151657104 
154 1 5.152878761291504 6.932905197143555 -6.719423294067383 
155 1 9.371355056762695 -1.703084945678711 0.826257586479187 
156 1 -6.525746345520020 2.873803138732910 1.830074191093445 
157 1 5.959321975708008 1.922110676765442 7.551073551177979 
158 1 9.707518577575684 -0.070290885865688 10.206395149230957 
159 1 -7.653995037078857 6.039557456970215 2.114168167114258 
160 1 -3.543040990829468 4.350979804992676 9.031023025512695 
161 1 -6.783766746520996 0.621404528617859 5.043323040008545 
162 1 -3.548125267028809 9.263557434082031 9.816041946411133 
163 1 11.590948104858398 -7.303503513336182 -9.236380577087402 
164 1 -2.023890018463135 -4.898007869720459 -11.234379768371582 
165 1 7.671854496002197 3.996539592742920 0.299682974815369 
166 1 -7.576855659484863 10.706653594970703 -7.095550060272217 
167 1 -5.597593307495117 -8.528935432434082 -3.182463407516479 
168 1 8.129146575927734 -2.339304924011230 -10.357002258300781 
169 1 1.078755617141724 -8.942273139953613 -6.873281955718994 
170 1 -0.212702408432961 9.734221458435059 -2.531161546707153 
171 1 6.954540729522705 -5.782994270324707 8.986348152160645 
172 1 -8.601213455200195 7.445044040679932 -5.491053104400635 
173 1 3.458324432373047 -2.293244361877441 -3.362578630447388 
174 1 3.061600208282471 -5.732466220855713 3.652511835098267 
175 1 -11.304621696472168 -9.480639457702637 6.971729755401611 
176 1 -4.955667495727539 6.356014728546143 -6.217356681823730 
177 1 9.011121749877930 -4.957553386688232 1.811301708221436 
178 1 4.950544357299805 3.975890636444092 4.698324680328369 
179 1 6.117917537689209 -10.122468948364258 -7.904653072357178 
180 1 -11.135378837585449 4.585554599761963 -10.960818290710449 
181 1 -10.986853599548340 -1.898325920104980 -7.857757568359375 
182 1 2.347395658493042 -9.958974838256836 0.298057705163956 
183 1 4.001161575317383 8.026331901550293 8.133780479431152 
184 1 -3.754567384719849 -8.381179809570312 -10.352952003479004 
185 1 -7.288020610809326 -7.104911804199219 -10.987706184387207 
186 1 0.330389231443405 1.608755588531494 -4.433087348937988 
187 1 -5.299314975738525 -1.881140589714050 -10.212865829467773 
188 1 9.410588264465332 8.252329826354980 0.286960303783417 
189 1 9.523303985595703 6.240317821502686 -8.779286384582520 
190 1 2.473032712936401 -10.488855361938477 10.258193016052246 
191 1 -6.496036052703857 4.452299118041992 11.204310417175293 
192 1 10.512078285217285 10.646578788757324 -7.233100414276123 
193 1 -0.492414265871048 11.511006355285645 1.949220418930054 
194 1 2.337167263031006 7.187644958496094 -10.907773017883301 
195 1 -8.964524269104004 -8.334658622741699 -4.441416263580322 
196 1 5.791897773742676 -4.527639865875244 5.548278808593750 
197 1 -8.413996696472168 -4.799769401550293 -3.484089612960815 
198 1 7.547088623046875 2.096997737884521 -7.884330272674561 
199 1 8.877981185913086 -1.259155631065369 -6.714361667633057 
200 1 10.825729370117188 -3.984576463699341 -1.316713809967041 
201 1 -9.566841125488281 -11.001432418823242 4.333388805389404 
202 1 3.856732845306396 -3.740468263626099 -9.776088714599609 
203 1 8.469179153442383 2.959074735641479 3.752442836761475 
204 1 -8.475028038024902 -7.039762496948242 -0.425014972686768 
205 1 -6.766160011291504 2.510632991790771 8.290606498718262 
206 1 10.276921272277832 5.786458969116211 2.105998277664185 
207 1 -6.449500560760498 -6.452087402343750 -7.465266704559326 
208 1 -2.234170436859131 -10.507368087768555 -8.115397453308105 
209 1 -0.051531735807657 -8.150537490844727 2.463265895843506 
210 1 5.378228187561035 -0.416768342256546 -5.914364337921143 
211 1 5.880127906799316 7.866739749908447 11.432646751403809 
212 1 -4.165211200714111 -0.986151516437531 3.359466552734375 
213 1 2.190775871276855 5.650594711303711 6.466943740844727 
214 1 6.158203601837158 -10.352108955383301 5.494771480560303 
215 1 -1.702189683914185 10.946572303771973 -11.159513473510742 
216 1 6.398731708526611 9.280858039855957 1.802952885627747 
217 1 -2.312990665435791 -1.057913422584534 -7.941656589508057 
218 1 4.928194522857666 3.259771108627319 -6.126914978027344 
219 1 7.124434471130371 -6.130208492279053 -6.703552722930908 
220 1 -6.486159324645996 -1.337080478668213 7.952395439147949 
221 1 -1.035374164581299 8.212864875793457 3.484184741973877 
222 1 -1.968870520591736 -7.419007778167725 6.711876869201660 
223 2 -5.220991611480713 -1.216704964637756 1.647572755813599 
224 2 -9.119704246520996 8.448933601379395 -1.394408822059631 
225 2 10.275829315185547 9.506463050842285 4.595833778381348 
226 2 6.406036853790283 2.657662153244019 -0.344857543706894 
227 2 -4.361417293548584 -8.143929481506348 1.124353051185608 
228 2 9.193703651428223 -2.794138669967651 -5.438888549804688 
229 2 9.214469909667969 -8.805101394653320 -5.223780155181885 
230 2 -8.179380416870117 7.674220561981201 1.053785443305969 
231 2 -6.096056461334229 9.537328720092773 -3.169620037078857 
232 2 10.996592521667480 10.950318336486816 10.223810195922852 
233 2 -5.801603317260742 2.692151784896851 -0.556528866291046 
234 2 6.612180709838867 -10.738683700561523 3.690842151641846 
235 2 7.301157951354980 -4.358204364776611 -2.213874578475952 
236 2 10.712444305419922 -5.910255908966064 -1.316840291023254 
237 2 9.149688720703125 10.117512702941895 -8.496028900146484 
238 2 -4.979904651641846 -10.370426177978516 -10.907126426696777 
239 2 11.020837783813477 -3.572935819625854 -7.417043209075928 
240 2 -3.470109701156616 8.017168998718262 -9.916572570800781 
241 2 7.474973201751709 7.650999546051025 10.219975471496582 
242 2 6.071470737457275 3.524787902832031 -7.886160850524902 
243 2 -9.526351928710938 -11.323243141174316 -9.643268585205078 
244 2 -2.849454402923584 8.729552268981934 4.263785362243652 
245 2 -0.948734760284424 9.478907585144043 -9.920250892639160 
246 2 4.385181903839111 -10.470454216003418 -6.943054676055908 
247 2 6.356857776641846 -5.869029998779297 -8.572944641113281 
248 2 9.321155548095703 10.049304008483887 -0.666293323040009 
249 2 -6.317929267883301 -9.017589569091797 8.171534538269043 
250 2 -6.873914241790771 -10.924236297607422 -8.038124084472656 
251 2 -3.930109262466431 10.173624992370605 -1.110233783721924 
252 2 -11.351923942565918 -10.069776535034180 11.457109451293945 
253 2 1.701227784156799 4.088236808776855 7.719493389129639 
254 2 -9.129794120788574 1.651561141014099 -8.107334136962891 
255 2 -11.508982658386230 7.437281608581543 -3.250013351440430 
256 2 -6.858714580535889 10.657242774963379 1.829620718955994 
257 2 10.906663894653320 0.656064391136169 -0.581426918506622 
258 2 10.463288307189941 2.598001480102539 -4.363451480865479 
259 2 11.506360054016113 8.506291389465332 7.197374820709229 
260 2 11.179397583007812 10.858184814453125 -10.359827995300293 
261 2 4.601016521453857 -3.475429773330688 -7.985923290252686 
262 2 4.614661216735840 5.623649597167969 3.488241672515869 
263 2 -0.386079281568527 -8.663735389709473 -2.181166410446167 
264 2 -3.779393434524536 -5.248541831970215 11.405105590820312 
265 2 -3.681487560272217 0.577891647815704 0.013884599320590 
266 2 -3.702979803085327 -3.903409719467163 6.476482391357422 
267 2 -2.426746845245361 -10.549640655517578 -2.892558574676514 
268 2 -4.322550296783447 8.141366004943848 -5.185438632965088 
269 2 9.328297615051270 7.328300476074219 -1.364190220832825 
270 2 -9.778875350952148 10.666002273559570 11.347363471984863 
271 2 -7.844585418701172 -8.966155052185059 -10.248821258544922 
272 2 3.246605873107910 -4.689409255981445 -11.513094902038574 
273 2 -8.685198783874512 -5.948491573333740 -1.937347531318665 
274 2 10.212179183959961 -3.092627525329590 -10.275222778320312 
275 2 -9.083403587341309 -0.107395678758621 2.129606723785400 
276 2 5.478279113769531 -1.033256173133850 -0.607135653495789 
277 2 7.809339523315430 4.543553352355957 -1.664577960968018 
278 2 -3.415678501129150 -0.069411613047123 -6.195162296295166 
279 2 7.356784343719482 8.443306922912598 0.196435183286667 
280 2 -4.694470405578613 -10.911464691162109 1.280355572700500 
281 2 2.570680379867554 -9.684254646301270 -1.534818649291992 
282 2 -10.180200576782227 -3.753312826156616 -3.830769538879395 
283 2 -9.756406784057617 -8.343820571899414 7.532686233520508 
284 2 -8.504869461059570 1.230730414390564 4.429142475128174 
285 2 9.055579185485840 2.309839487075806 -9.578750610351562 
286 2 7.683542251586914 -2.447313070297241 11.137021064758301 
287 2 -2.353395223617554 -1.765985608100891 3.444926977157593 
288 2 9.312766075134277 2.704719066619873 -0.262537240982056 
289 2 -6.701970577239990 6.414830207824707 11.067617416381836 
290 2 -8.617806434631348 9.339037895202637 6.453282356262207 
291 2 11.181464195251465 7.210151672363281 -8.465517997741699 
292 2 2.008876323699951 6.068982124328613 -1.306667089462280 
293 2 -7.918616294860840 -3.270977973937988 -4.943210124969482 
294 2 -3.224125623703003 0.688008725643158 2.581980466842651 
295 2 -10.340706825256348 -6.082501888275146 -8.466372489929199 
296 2 -4.490966320037842 6.476363182067871 5.324599266052246 
297 2 3.525435447692871 -5.729351997375488 -9.193911552429199 
298 2 -0.949845492839813 11.182468414306641 -7.643764019012451 
299 2 -8.753368377685547 -10.234725952148438 -4.207958698272705 
300 2 -2.229666471481323 7.386332988739014 6.231380939483643 
301 2 1.530682444572449 -10.853691101074219 -6.293042659759521 
302 2 -8.229305267333984 1.831513047218323 -3.731608629226685 
303 2 -7.429993629455566 -6.111237525939941 -9.267384529113770 
304 2 -6.800143718719482 -3.928138971328735 9.476114273071289 
305 2 -1.808256030082703 0.920114934444427 -8.178112030029297 
306 2 -2.079871416091919 -9.684133529663086 -0.066802993416786 
307 2 -2.617020845413208 3.961909055709839 3.524258375167847 
308 2 2.777554750442505 -0.347118437290192 1.712674021720886 
309 2 2.198942422866821 -3.850362300872803 -2.682376623153687 
310 2 -9.278218269348145 -4.016144752502441 7.104320049285889 
311 2 7.507720947265625 -11.510108947753906 6.402256965637207 
312 2 -5.116783142089844 -2.268161058425903 -5.952772140502930 
313 2 5.811520099639893 7.889975547790527 7.245919227600098 
314 2 1.446494340896606 -6.146816253662109 -4.321557521820068 
315 2 3.985055208206177 3.969469308853149 -9.777928352355957 
316 2 -0.025556437671185 8.933363914489746 4.921950340270996 
317 2 1.010393381118774 -11.097678184509277 1.048678159713745 
318 2 -8.031462669372559 -3.505320549011230 -7.895238876342773 
319 2 6.019657135009766 -10.794621467590332 9.771286964416504 
320 2 -11.127341270446777 -11.090249061584473 0.863428771495819 
321 2 -3.375458955764771 -4.883228302001953 -4.222784519195557 
322 2 1.715313434600830 7.373874187469482 -5.310918807983398 
323 2 -8.587111473083496 2.030132532119751 8.036321640014648 
324 2 10.214682579040527 -8.671705245971680 -9.363622665405273 
325 2 -4.993755817413330 -10.278356552124023 6.270610809326172 
326 2 11.204574584960938 -0.861122310161591 -9.138011932373047 
327 2 -10.655714035034180 -3.981901407241821 -0.905167162418365 
328 2 -2.170223712921143 2.972202539443970 0.464351892471313 
329 2 8.425001144409180 11.430200576782227 10.340212821960449 
330 2 7.151157855987549 10.027683258056641 8.457774162292480 
331 2 9.669930458068848 6.661352157592773 5.625681877136230 
332 2 -7.069192409515381 -3.880081892013550 4.316987037658691 
333 2 -2.363834381103516 -7.950188636779785 -6.619582176208496 
334 2 -6.401977062225342 1.554494619369507 -8.879862785339355 
335 2 3.047602891921997 6.118426322937012 -3.554431438446045 
336 2 5.933633327484131 -3.676685810089111 -0.062663860619068 
337 2 7.830995082855225 -10.938993453979492 -1.328008890151978 
338 2 -1.014551520347595 -5.955160617828369 10.783274650573730 
339 2 -9.585625648498535 0.751113057136536 -1.038051843643188 
340 2 -9.014714241027832 -6.304492950439453 -4.503822803497314 
341 2 7.238007068634033 9.794633865356445 -2.512443304061890 
342 2 7.864347934722900 3.758492469787598 10.701426506042480 
343 2 -11.253431320190430 5.286704063415527 5.274872779846191 
344 2 8.392767906188965 7.739191055297852 -8.092487335205078 
345 2 -4.961462497711182 4.742542743682861 -7.393729209899902 
346 2 -11.164964675903320 2.960315704345703 -1.176511764526367 
347 2 4.920650005340576 -2.772871732711792 5.515393257141113 
348 2 10.469445228576660 4.844015598297119 -2.394735574722290 
349 2 4.767307758331299 7.791317462921143 9.872460365295410 
350 2 9.521503448486328 -10.981350898742676 1.145016431808472 
351 2 -5.003704547882080 -7.377664089202881 -6.289192676544189 
352 2 4.917462825775146 3.134110450744629 11.067286491394043 
353 2 -5.861479759216309 -11.018505096435547 3.870815515518188 
354 2 1.155310034751892 -4.882719039916992 6.332274913787842 
355 2 3.552902698516846 -10.683492660522461 8.647755622863770 
356 2 2.443075180053711 -5.908293724060059 1.808508396148682 
357 2 3.518777132034302 -2.352919578552246 10.290183067321777 
358 2 1.980969786643982 -1.934697389602661 -4.513358592987061 
359 2 -4.264776706695557 -8.918274879455566 -1.892787456512451 
360 2 9.953678131103516 1.988192081451416 3.097522735595703 
361 2 -11.585561752319336 -5.969975948333740 7.046175003051758 
362 2 3.333450794219971 11.642908096313477 -0.041418906301260 
363 2 8.762834548950195 -2.382776260375977 -8.336939811706543 
364 2 -8.493451118469238 -3.733130216598511 -10.934828758239746 
365 2 -9.487931251525879 6.740609645843506 6.659879207611084 
366 2 -4.492422580718994 11.135580062866211 -4.020056247711182 
367 2 -7.609902381896973 4.407812595367432 -10.608208656311035 
368 2 -0.706312477588654 -5.602252006530762 -2.331478118896484 
369 2 0.112644657492638 -7.464905261993408 -9.428177833557129 
370 2 -2.273216247558594 8.746549606323242 -7.606408119201660 
371 2 -8.231369972229004 -5.991621017456055 -6.844000816345215 
372 2 -4.113906383514404 -7.509569644927979 3.879835128784180 
373 2 -2.653218984603882 -1.875727653503418 8.091506004333496 
374 2 11.269381523132324 5.208163738250732 -4.798054218292236 
375 2 -1.618762612342834 -3.267778873443604 10.813170433044434 
376 2 -0.186178237199783 -6.454188346862793 0.431541860103607 
377 2 4.552654743194580 -2.176221132278442 -5.477493286132812 
378 2 10.240319252014160 -3.787116289138794 -3.145183563232422 
379 2 6.887893199920654 -9.963114738464355 -11.192037582397461 
380 2 -11.566495895385742 -8.274307250976562 5.519230842590332 
381 2 -6.891825675964355 4.552795410156250 3.187182903289795 
382 2 10.452497482299805 9.695486068725586 1.544498682022095 
383 2 -5.377217769622803 -0.383202254772186 -1.508566498756409 
384 2 -0.462216585874557 -8.703691482543945 10.979850769042969 
385 2 -9.939117431640625 8.607112884521484 -9.882545471191406 
386 2 -7.291473865509033 4.326661109924316 -2.986245393753052 
387 2 -5.049979686737061 3.166267871856689 8.522531509399414 
388 2 7.075391769409180 6.900177955627441 -2.685456037521362 
389 2 -7.946445465087891 7.881831645965576 -3.741183519363403 
390 2 4.100163936614990 9.978149414062500 7.669603347778320 
391 2 -10.812989234924316 -0.659585356712341 8.951005935668945 
392 2 1.955564975738525 5.310807704925537 -6.916813850402832 
393 2 -7.341750621795654 -1.036203026771545 -6.550891399383545 
394 2 4.747070312500000 0.014665081165731 3.940385818481445 
395 2 -1.013562440872192 5.231644630432129 1.683769106864929 
396 2 10.899509429931641 -1.960836172103882 4.183895587921143 
397 2 -6.472356319427490 3.627547264099121 -5.483896732330322 
398 2 -1.109727144241333 -1.081886053085327 -6.458218097686768 
399 2 -3.667257785797119 -9.792161941528320 8.771998405456543 
400 2 -0.452823430299759 6.908330917358398 -8.017867088317871 
401 2 9.811704635620117 -4.572644710540771 3.724190950393677 
402 2 -11.011206626892090 -4.485687255859375 4.939085006713867 
403 2 -6.486756324768066 -4.986138820648193 -3.436369180679321 
404 2 3.655204057693481 -3.191845417022705 1.751129746437073 
405 2 -8.263177871704102 -4.952194690704346 0.595176458358765 
406 2 2.774663686752319 0.527374923229218 6.215938568115234 
407 2 5.747686862945557 -0.180631741881371 6.505715847015381 
408 2 -10.209307670593262 -6.629125595092773 0.507076561450958 
409 2 5.187054157257080 -5.817553520202637 1.178764700889587 
410 2 5.552895545959473 -4.167447090148926 -10.600307464599609 
411 2 1.148523449897766 -2.185369968414307 0.725824832916260 
412 2 -0.958550453186035 -9.943523406982422 2.341232776641846 
413 2 -4.924638748168945 7.575220108032227 -7.755687713623047 
414 2 -7.517583370208740 -1.448928833007812 -0.287189573049545 
415 2 3.883661508560181 -5.440243244171143 5.668032169342041 
416 2 9.616449356079102 -1.726658105850220 6.271512031555176 
417 2 8.313709259033203 -4.185173511505127 9.019112586975098 
418 2 -6.313358783721924 -10.892709732055664 -5.587372303009033 
419 2 -1.235242128372192 -0.777651011943817 10.401708602905273 
420 2 3.502727270126343 7.735372066497803 -7.606686115264893 
421 2 -10.653038978576660 0.768280029296875 6.721402168273926 
422 2 9.293576240539551 7.276742935180664 -4.243438243865967 
423 2 -2.143614292144775 4.507306575775146 6.234776496887207 
424 2 4.131698608398438 -9.673018455505371 1.303255796432495 
425 2 -0.094576552510262 -11.029506683349609 5.820179939270020 
426 2 -6.734676837921143 -0.572266995906830 3.526129961013794 
427 2 8.047647476196289 -2.074980735778809 -0.399404019117355 
428 2 -2.616912364959717 -1.608737707138062 -1.266125559806824 
429 2 3.878489971160889 2.819241762161255 -4.502042770385742 
430 2 1.652393937110901 -9.777531623840332 -8.764326095581055 
431 2 -5.268941402435303 8.575396537780762 9.912836074829102 
432 2 -11.081829071044922 -9.967999458312988 3.479601860046387 
433 2 -10.626316070556641 8.114334106445312 4.846143245697021 
434 2 6.112837791442871 -5.265170097351074 7.338106632232666 
435 2 -1.671958923339844 -6.360481262207031 5.025574684143066 
436 2 9.931642532348633 0.431969553232193 -2.947328567504883 
437 2 -11.103332519531250 -3.749640941619873 1.993169546127319 
438 2 -4.844340324401855 10.305395126342773 -8.515165328979492 
439 2 -3.344107866287231 -10.143320083618164 3.713329792022705 
440 2 -1.770510792732239 1.841700911521912 4.706068515777588 
441 2 -6.823704242706299 -10.879375457763672 -0.134447962045670 
442 2 1.574778914451599 8.532915115356445 11.371978759765625 
443 2 -0.620255768299103 -9.508498191833496 -7.717908859252930 
444 2 -6.836148262023926 4.589743614196777 0.763197481632233 
445 2 -6.981448173522949 1.433391690254211 -6.470087528228760 
446 2 7.405852794647217 1.406649231910706 4.035069942474365 
447 2 -6.707067489624023 0.650102317333221 9.127677917480469 
448 2 0.147211864590645 3.664851427078247 4.011677742004395 
449 2 9.415462493896484 5.863265991210938 -6.754813671112061 
450 2 11.581724166870117 -6.550048828125000 3.621779918670654 
451 2 0.530560731887817 1.895259737968445 5.999888420104980 
452 2 2.733803749084473 -1.626422047615051 4.426958084106445 
453 2 2.641616106033325 -1.787533998489380 -1.498603940010071 
454 2 -4.566833019256592 3.153978824615479 2.030332803726196 
455 2 10.149406433105469 0.734326124191284 5.866629600524902 
456 2 -6.412903785705566 11.081336021423340 7.125154972076416 
457 2 4.067396163940430 8.102787971496582 -10.513549804687500 
458 2 -3.246208190917969 0.245556339621544 9.391387939453125 
459 2 6.091022491455078 5.312658786773682 9.481110572814941 
460 2 -1.783293366432190 -5.634113788604736 7.561249732971191 
461 2 6.913527965545654 8.347341537475586 -10.325306892395020 
462 2 11.234440803527832 5.835774898529053 7.833408832550049 
463 2 -1.218317627906799 6.299109458923340 4.126044750213623 
464 2 0.510594189167023 -1.648662805557251 6.341273784637451 
465 2 5.463717937469482 1.977781295776367 -2.578818559646606 
466 2 9.755666732788086 -4.521343708038330 6.297642707824707 
467 2 -4.726024627685547 4.682515144348145 10.565302848815918 
468 2 9.602215766906738 -10.662746429443359 -10.696013450622559 
469 2 -8.814837455749512 -9.255690574645996 4.866790294647217 
470 2 -8.844293594360352 -8.956358909606934 0.069713905453682 
471 2 2.418107986450195 -7.273940563201904 5.302340984344482 
472 2 0.418357014656067 0.596124589443207 -10.366899490356445 
473 2 6.727396965026855 -7.385564327239990 -5.247384071350098 
474 2 -2.518917083740234 -6.850105762481689 -9.794029235839844 
475 2 -0.886220932006836 9.878420829772949 -0.710718691349030 