LAMMPS (7 Dec 2015)
Reading data file ...
  triclinic box = (0 0 0) to (23.3007 23.3007 23.3007) with tilt (0 0 0)
  2 by 2 by 3 MPI processor grid
  reading atoms ...
  1008 atoms
Bisection: Getting new map
Scanning dump file ...
Reading snapshot from dump file ...
  triclinic box = (0 0 0) to (23.3007 23.3007 23.3007) with tilt (0 0 0)
  1008 atoms before read
  1008 atoms in snapshot
  0 atoms purged
  1008 atoms replaced
  0 atoms trimmed
  0 atoms added
  1008 atoms after read
Scanning dump file ...
Reading snapshot from dump file ...
  triclinic box = (0 0 0) to (23.3007 23.3007 23.3007) with tilt (0 0 0)
  1008 atoms before read
  1008 atoms in snapshot
  0 atoms purged
  1008 atoms replaced
  0 atoms trimmed
  0 atoms added
  1008 atoms after read
CR_UPDATE- 23.300680	23.300680	23.300680	0.000000	0.000000	0.000000
For k = 0, applying strain of 0.995
Changing box ...
  triclinic box = (0.0582517 0 0) to (23.2424 23.3007 23.3007) with tilt (0 0 0)
WARNING: Resetting reneighboring criteria during minimization (../min.cpp:168)
Ewald initialization ...
  G vector (1/distance) = 0.365089
  estimated absolute RMS force accuracy = 1.92191e-05
  estimated relative force accuracy = 1.33469e-06
  KSpace vectors: actual max1d max3d = 2088 10 4630
                  kxmax kymax kzmax  = 10 10 10
Neighbor list info ...
  2 neighbor list requests
  update every 1 steps, delay 0 steps, check yes
  max neighbors/atom: 2000, page size: 100000
  master list distance cutoff = 11
  ghost atom cutoff = 11
Setting up cg style minimization ...
  Unit style: metal
Memory usage per processor = 4.56141 Mbytes
Step Temp E_pair E_mol TotEng Press 
       0           10   -18274.572            0    -18273.27    1594.7439 
      15           10   -18274.714            0   -18273.412   -1937.5671 
Loop time of 0.209761 on 12 procs for 15 steps with 1008 atoms

95.1% CPU use with 12 MPI tasks x no OpenMP threads

Minimization stats:
  Stopping criterion = linesearch alpha is zero
  Energy initial, next-to-last, final = 
        -18274.5721441     -18274.7138941     -18274.7138941
  Force two-norm initial, final = 1.8226 0.196959
  Force max component initial, final = 0.157397 0.0166602
  Final line search alpha, max atom move = 2.38419e-07 3.97211e-09
  Iterations, force evaluations = 15 73

MPI task timing breakdown:
Section |  min time  |  avg time  |  max time  |%varavg| %total
---------------------------------------------------------------
Pair    | 0.072518   | 0.080951   | 0.084716   |   1.2 | 38.59
Kspace  | 0.11382    | 0.11755    | 0.12053    |   0.6 | 56.04
Neigh   | 0          | 0          | 0          |   0.0 |  0.00
Comm    | 0.0074203  | 0.0099881  | 0.015475   |   2.1 |  4.76
Output  | 0          | 0          | 0          |   0.0 |  0.00
Modify  | 0          | 0          | 0          |   0.0 |  0.00
Other   |            | 0.001267   |            |       |  0.60

Nlocal:    84 ave 87 max 78 min
Histogram: 1 0 0 0 1 2 3 2 1 2
Nghost:    2612.33 ave 2640 max 2590 min
Histogram: 3 0 2 1 1 0 2 1 0 2
Neighs:    18729.1 ave 19465 max 17303 min
Histogram: 1 0 0 0 2 1 3 1 1 3

Total # of neighbors = 224749
Ave neighs/atom = 222.965
Neighbor list builds = 0
Dangerous builds = 0
CR_UPDATE- 23.300680	23.300680	23.300680	0.000000	0.000000	0.000000
For k = 1, applying strain of 0.996667
Changing box ...
  triclinic box = (0.0388306 0 0) to (23.2618 23.3007 23.3007) with tilt (0 0 0)
WARNING: Resetting reneighboring criteria during minimization (../min.cpp:168)
Ewald initialization ...
  G vector (1/distance) = 0.365078
  estimated absolute RMS force accuracy = 1.92793e-05
  estimated relative force accuracy = 1.33888e-06
  KSpace vectors: actual max1d max3d = 2084 10 4630
                  kxmax kymax kzmax  = 10 10 10
Setting up cg style minimization ...
  Unit style: metal
Memory usage per processor = 4.56141 Mbytes
Step Temp E_pair E_mol TotEng Press 
      15           10   -18274.619            0   -18273.317   -2003.9123 
      33           10   -18274.684            0   -18273.382   -4373.2796 
Loop time of 0.216512 on 12 procs for 18 steps with 1008 atoms

98.1% CPU use with 12 MPI tasks x no OpenMP threads

Minimization stats:
  Stopping criterion = linesearch alpha is zero
  Energy initial, next-to-last, final = 
         -18274.619109     -18274.6841002     -18274.6841002
  Force two-norm initial, final = 1.20759 0.0969083
  Force max component initial, final = 0.103895 0.00902748
  Final line search alpha, max atom move = 9.53674e-07 8.60928e-09
  Iterations, force evaluations = 18 75

MPI task timing breakdown:
Section |  min time  |  avg time  |  max time  |%varavg| %total
---------------------------------------------------------------
Pair    | 0.075246   | 0.083189   | 0.087778   |   1.2 | 38.42
Kspace  | 0.11887    | 0.12204    | 0.12457    |   0.5 | 56.37
Neigh   | 0          | 0          | 0          |   0.0 |  0.00
Comm    | 0.0075586  | 0.010139   | 0.015629   |   2.1 |  4.68
Output  | 0          | 0          | 0          |   0.0 |  0.00
Modify  | 0          | 0          | 0          |   0.0 |  0.00
Other   |            | 0.001139   |            |       |  0.53

Nlocal:    84 ave 87 max 78 min
Histogram: 1 0 0 0 1 2 3 2 1 2
Nghost:    2610.67 ave 2636 max 2588 min
Histogram: 3 0 2 1 0 1 1 1 1 2
Neighs:    18696.8 ave 19431 max 17272 min
Histogram: 1 0 0 0 2 1 3 1 1 3

Total # of neighbors = 224362
Ave neighs/atom = 222.581
Neighbor list builds = 0
Dangerous builds = 0
CR_UPDATE- 23.300680	23.300680	23.300680	0.000000	0.000000	0.000000
For k = 2, applying strain of 0.998333
Changing box ...
  triclinic box = (0.0194211 0 0) to (23.2813 23.3007 23.3007) with tilt (0 0 0)
WARNING: Resetting reneighboring criteria during minimization (../min.cpp:168)
Ewald initialization ...
  G vector (1/distance) = 0.365066
  estimated absolute RMS force accuracy = 1.9345e-05
  estimated relative force accuracy = 1.34344e-06
  KSpace vectors: actual max1d max3d = 2084 10 4630
                  kxmax kymax kzmax  = 10 10 10
Setting up cg style minimization ...
  Unit style: metal
Memory usage per processor = 4.56141 Mbytes
Step Temp E_pair E_mol TotEng Press 
      33           10   -18274.581            0   -18273.279   -5562.2883 
      44           10   -18274.597            0   -18273.295   -6664.3879 
Loop time of 0.176485 on 12 procs for 11 steps with 1008 atoms

99.1% CPU use with 12 MPI tasks x no OpenMP threads

Minimization stats:
  Stopping criterion = linesearch alpha is zero
  Energy initial, next-to-last, final = 
         -18274.581102     -18274.5965543     -18274.5965543
  Force two-norm initial, final = 0.59991 0.0942338
  Force max component initial, final = 0.0514151 0.00996429
  Final line search alpha, max atom move = 9.53674e-07 9.50269e-09
  Iterations, force evaluations = 11 61

MPI task timing breakdown:
Section |  min time  |  avg time  |  max time  |%varavg| %total
---------------------------------------------------------------
Pair    | 0.061686   | 0.067652   | 0.071461   |   1.0 | 38.33
Kspace  | 0.09708    | 0.099625   | 0.10201    |   0.5 | 56.45
Neigh   | 0          | 0          | 0          |   0.0 |  0.00
Comm    | 0.0061712  | 0.0083282  | 0.012807   |   1.9 |  4.72
Output  | 0          | 0          | 0          |   0.0 |  0.00
Modify  | 0          | 0          | 0          |   0.0 |  0.00
Other   |            | 0.0008805  |            |       |  0.50

Nlocal:    84 ave 87 max 78 min
Histogram: 1 0 0 0 1 2 3 2 1 2
Nghost:    2607.67 ave 2634 max 2583 min
Histogram: 3 0 1 1 1 1 2 0 1 2
Neighs:    18664.4 ave 19384 max 17246 min
Histogram: 1 0 0 0 2 1 2 2 1 3

Total # of neighbors = 223973
Ave neighs/atom = 222.195
Neighbor list builds = 0
Dangerous builds = 0
CR_UPDATE- 23.300680	23.300680	23.300680	0.000000	0.000000	0.000000
For k = 3, applying strain of 1
Changing box ...
  triclinic box = (0 0 0) to (23.3007 23.3007 23.3007) with tilt (0 0 0)
WARNING: Resetting reneighboring criteria during minimization (../min.cpp:168)
Ewald initialization ...
  G vector (1/distance) = 0.365055
  estimated absolute RMS force accuracy = 1.94166e-05
  estimated relative force accuracy = 1.34841e-06
  KSpace vectors: actual max1d max3d = 2084 10 4630
                  kxmax kymax kzmax  = 10 10 10
Setting up cg style minimization ...
  Unit style: metal
Memory usage per processor = 4.56141 Mbytes
Step Temp E_pair E_mol TotEng Press 
      44           10   -18274.463            0   -18273.161   -9085.9642 
      45           10   -18274.463            0   -18273.161   -9085.9642 
Loop time of 0.0683045 on 12 procs for 1 steps with 1008 atoms

99.2% CPU use with 12 MPI tasks x no OpenMP threads

Minimization stats:
  Stopping criterion = linesearch alpha is zero
  Energy initial, next-to-last, final = 
        -18274.4628899     -18274.4628899     -18274.4628899
  Force two-norm initial, final = 0.0046938 0.0046938
  Force max component initial, final = 0.000338983 0.000338983
  Final line search alpha, max atom move = 0.000488281 1.65519e-07
  Iterations, force evaluations = 1 23

MPI task timing breakdown:
Section |  min time  |  avg time  |  max time  |%varavg| %total
---------------------------------------------------------------
Pair    | 0.023616   | 0.026166   | 0.027798   |   0.6 | 38.31
Kspace  | 0.037605   | 0.038674   | 0.039477   |   0.3 | 56.62
Neigh   | 0          | 0          | 0          |   0.0 |  0.00
Comm    | 0.0023072  | 0.0031485  | 0.0049152  |   1.2 |  4.61
Output  | 0          | 0          | 0          |   0.0 |  0.00
Modify  | 0          | 0          | 0          |   0.0 |  0.00
Other   |            | 0.0003158  |            |       |  0.46

Nlocal:    84 ave 87 max 78 min
Histogram: 1 0 0 0 1 2 3 2 1 2
Nghost:    2602.75 ave 2629 max 2580 min
Histogram: 3 0 1 1 2 0 2 0 2 1
Neighs:    18631.8 ave 19358 max 17213 min
Histogram: 1 0 0 0 2 1 3 1 1 3

Total # of neighbors = 223581
Ave neighs/atom = 221.807
Neighbor list builds = 0
Dangerous builds = 0
CR_UPDATE- 23.300680	23.300680	23.300680	0.000000	0.000000	0.000000
For k = 4, applying strain of 1.00167
Changing box ...
  triclinic box = (-0.0194211 0 0) to (23.3201 23.3007 23.3007) with tilt (0 0 0)
WARNING: Resetting reneighboring criteria during minimization (../min.cpp:168)
Ewald initialization ...
  G vector (1/distance) = 0.365044
  estimated absolute RMS force accuracy = 1.94944e-05
  estimated relative force accuracy = 1.35381e-06
  KSpace vectors: actual max1d max3d = 2084 10 4630
                  kxmax kymax kzmax  = 10 10 10
Setting up cg style minimization ...
  Unit style: metal
Memory usage per processor = 4.56141 Mbytes
Step Temp E_pair E_mol TotEng Press 
      45           10    -18274.26            0   -18272.958   -12571.847 
      50           10   -18274.273            0   -18272.972   -11612.248 
      51           10   -18274.273            0   -18272.972   -11612.248 
Loop time of 0.157374 on 12 procs for 6 steps with 1008 atoms

99.4% CPU use with 12 MPI tasks x no OpenMP threads

Minimization stats:
  Stopping criterion = linesearch alpha is zero
  Energy initial, next-to-last, final = 
          -18274.25999      -18274.273453      -18274.273453
  Force two-norm initial, final = 0.595706 0.174405
  Force max component initial, final = 0.0506934 0.0163551
  Final line search alpha, max atom move = 2.38419e-07 3.89937e-09
  Iterations, force evaluations = 6 55

MPI task timing breakdown:
Section |  min time  |  avg time  |  max time  |%varavg| %total
---------------------------------------------------------------
Pair    | 0.054572   | 0.060588   | 0.062837   |   1.0 | 38.50
Kspace  | 0.085711   | 0.088595   | 0.091076   |   0.5 | 56.30
Neigh   | 0          | 0          | 0          |   0.0 |  0.00
Comm    | 0.0054483  | 0.0074003  | 0.011458   |   1.8 |  4.70
Output  | 2.0027e-05 | 2.1696e-05 | 2.5034e-05 |   0.0 |  0.01
Modify  | 0          | 0          | 0          |   0.0 |  0.00
Other   |            | 0.000769   |            |       |  0.49

Nlocal:    84 ave 87 max 78 min
Histogram: 1 0 0 0 1 2 3 2 1 2
Nghost:    2602.75 ave 2629 max 2580 min
Histogram: 3 0 1 1 2 0 2 0 2 1
Neighs:    18601.7 ave 19340 max 17190 min
Histogram: 1 0 0 0 2 1 3 1 1 3

Total # of neighbors = 223220
Ave neighs/atom = 221.448
Neighbor list builds = 0
Dangerous builds = 0
CR_UPDATE- 23.300680	23.300680	23.300680	0.000000	0.000000	0.000000
For k = 5, applying strain of 1.00333
Changing box ...
  triclinic box = (-0.0388306 0 0) to (23.3395 23.3007 23.3007) with tilt (0 0 0)
WARNING: Resetting reneighboring criteria during minimization (../min.cpp:168)
Ewald initialization ...
  G vector (1/distance) = 0.365032
  estimated absolute RMS force accuracy = 1.95788e-05
  estimated relative force accuracy = 1.35968e-06
  KSpace vectors: actual max1d max3d = 2084 10 4630
                  kxmax kymax kzmax  = 10 10 10
Setting up cg style minimization ...
  Unit style: metal
Memory usage per processor = 4.56141 Mbytes
Step Temp E_pair E_mol TotEng Press 
      51           10   -18273.974            0   -18272.672   -16018.384 
      64           10   -18274.036            0   -18272.734   -13772.893 
Loop time of 0.191524 on 12 procs for 13 steps with 1008 atoms

99.3% CPU use with 12 MPI tasks x no OpenMP threads

Minimization stats:
  Stopping criterion = linesearch alpha is zero
  Energy initial, next-to-last, final = 
        -18273.9740469     -18274.0360991     -18274.0360991
  Force two-norm initial, final = 1.18312 0.147038
  Force max component initial, final = 0.100303 0.0115468
  Final line search alpha, max atom move = 4.76837e-07 5.50597e-09
  Iterations, force evaluations = 13 67

MPI task timing breakdown:
Section |  min time  |  avg time  |  max time  |%varavg| %total
---------------------------------------------------------------
Pair    | 0.066435   | 0.073518   | 0.076763   |   1.1 | 38.39
Kspace  | 0.10495    | 0.10799    | 0.11039    |   0.5 | 56.39
Neigh   | 0          | 0          | 0          |   0.0 |  0.00
Comm    | 0.0066814  | 0.0090404  | 0.013969   |   2.0 |  4.72
Output  | 0          | 0          | 0          |   0.0 |  0.00
Modify  | 0          | 0          | 0          |   0.0 |  0.00
Other   |            | 0.000974   |            |       |  0.51

Nlocal:    84 ave 87 max 78 min
Histogram: 1 0 0 0 1 2 3 2 1 2
Nghost:    2597.75 ave 2623 max 2576 min
Histogram: 3 1 0 1 2 0 2 1 1 1
Neighs:    18568.1 ave 19299 max 17157 min
Histogram: 1 0 0 0 2 1 3 1 1 3

Total # of neighbors = 222817
Ave neighs/atom = 221.049
Neighbor list builds = 0
Dangerous builds = 0
CR_UPDATE- 23.300680	23.300680	23.300680	0.000000	0.000000	0.000000
For k = 6, applying strain of 1.005
Changing box ...
  triclinic box = (-0.0582517 0 0) to (23.3589 23.3007 23.3007) with tilt (0 0 0)
WARNING: Resetting reneighboring criteria during minimization (../min.cpp:168)
Ewald initialization ...
  G vector (1/distance) = 0.365021
  estimated absolute RMS force accuracy = 1.96704e-05
  estimated relative force accuracy = 1.36604e-06
  KSpace vectors: actual max1d max3d = 2084 10 4630
                  kxmax kymax kzmax  = 10 10 10
Setting up cg style minimization ...
  Unit style: metal
Memory usage per processor = 4.56141 Mbytes
Step Temp E_pair E_mol TotEng Press 
      64           10   -18273.608            0   -18272.306    -19430.68 
      79           10    -18273.75            0   -18272.448    -16029.99 
Loop time of 0.208681 on 12 procs for 15 steps with 1008 atoms

99.5% CPU use with 12 MPI tasks x no OpenMP threads

Minimization stats:
  Stopping criterion = linesearch alpha is zero
  Energy initial, next-to-last, final = 
        -18273.6075737     -18273.7500365     -18273.7500365
  Force two-norm initial, final = 1.76446 0.177824
  Force max component initial, final = 0.149009 0.015604
  Final line search alpha, max atom move = 2.38419e-07 3.72027e-09
  Iterations, force evaluations = 15 73

MPI task timing breakdown:
Section |  min time  |  avg time  |  max time  |%varavg| %total
---------------------------------------------------------------
Pair    | 0.071847   | 0.07987    | 0.083469   |   1.1 | 38.27
Kspace  | 0.11433    | 0.11769    | 0.12064    |   0.5 | 56.40
Neigh   | 0          | 0          | 0          |   0.0 |  0.00
Comm    | 0.0075018  | 0.010057   | 0.015577   |   2.1 |  4.82
Output  | 0          | 0          | 0          |   0.0 |  0.00
Modify  | 0          | 0          | 0          |   0.0 |  0.00
Other   |            | 0.001064   |            |       |  0.51

Nlocal:    84 ave 87 max 78 min
Histogram: 1 0 0 0 1 2 3 2 1 2
Nghost:    2595 ave 2623 max 2571 min
Histogram: 3 1 0 2 0 1 2 0 2 1
Neighs:    18534.7 ave 19258 max 17126 min
Histogram: 1 0 0 0 2 1 3 1 1 3

Total # of neighbors = 222416
Ave neighs/atom = 220.651
Neighbor list builds = 0
Dangerous builds = 0
CR_UPDATE- 23.300680	23.300680	23.300680	0.000000	0.000000	0.000000
For k = 0, applying strain of 0.995
Changing box ...
  triclinic box = (0 0.0582517 0) to (23.3007 23.2424 23.3007) with tilt (0 0 0)
WARNING: Resetting reneighboring criteria during minimization (../min.cpp:168)
Ewald initialization ...
  G vector (1/distance) = 0.365089
  estimated absolute RMS force accuracy = 1.92191e-05
  estimated relative force accuracy = 1.33469e-06
  KSpace vectors: actual max1d max3d = 2088 10 4630
                  kxmax kymax kzmax  = 10 10 10
Setting up cg style minimization ...
  Unit style: metal
Memory usage per processor = 4.56141 Mbytes
Step Temp E_pair E_mol TotEng Press 
      79           10   -18274.493            0   -18273.192    1578.3119 
      96           10    -18274.63            0   -18273.329   -1750.0239 
Loop time of 0.322999 on 12 procs for 17 steps with 1008 atoms

99.6% CPU use with 12 MPI tasks x no OpenMP threads

Minimization stats:
  Stopping criterion = linesearch alpha is zero
  Energy initial, next-to-last, final = 
        -18274.4934569     -18274.6302761     -18274.6302761
  Force two-norm initial, final = 1.76429 0.122976
  Force max component initial, final = 0.16407 0.0100228
  Final line search alpha, max atom move = 4.76837e-07 4.77923e-09
  Iterations, force evaluations = 17 113

MPI task timing breakdown:
Section |  min time  |  avg time  |  max time  |%varavg| %total
---------------------------------------------------------------
Pair    | 0.11332    | 0.12463    | 0.1304     |   1.4 | 38.58
Kspace  | 0.17601    | 0.18151    | 0.1874     |   0.7 | 56.20
Neigh   | 0          | 0          | 0          |   0.0 |  0.00
Comm    | 0.01141    | 0.015288   | 0.023558   |   2.6 |  4.73
Output  | 0          | 0          | 0          |   0.0 |  0.00
Modify  | 0          | 0          | 0          |   0.0 |  0.00
Other   |            | 0.001573   |            |       |  0.49

Nlocal:    84 ave 87 max 78 min
Histogram: 1 0 0 0 1 2 3 2 1 2
Nghost:    2618.67 ave 2643 max 2592 min
Histogram: 2 1 2 1 0 0 1 0 2 3
Neighs:    18728.6 ave 19451 max 17300 min
Histogram: 1 0 0 0 2 1 2 2 1 3

Total # of neighbors = 224743
Ave neighs/atom = 222.959
Neighbor list builds = 0
Dangerous builds = 0
CR_UPDATE- 23.300680	23.300680	23.300680	0.000000	0.000000	0.000000
For k = 1, applying strain of 0.996667
Changing box ...
  triclinic box = (0 0.0388306 0) to (23.3007 23.2618 23.3007) with tilt (0 0 0)
WARNING: Resetting reneighboring criteria during minimization (../min.cpp:168)
Ewald initialization ...
  G vector (1/distance) = 0.365078
  estimated absolute RMS force accuracy = 1.92793e-05
  estimated relative force accuracy = 1.33888e-06
  KSpace vectors: actual max1d max3d = 2084 10 4630
                  kxmax kymax kzmax  = 10 10 10
Setting up cg style minimization ...
  Unit style: metal
Memory usage per processor = 4.56141 Mbytes
Step Temp E_pair E_mol TotEng Press 
      96           10   -18274.568            0   -18273.266   -2014.9813 
     100           10   -18274.617            0   -18273.315   -3622.2484 
     110           10   -18274.628            0   -18273.326   -4178.6989 
Loop time of 0.303063 on 12 procs for 14 steps with 1008 atoms

99.7% CPU use with 12 MPI tasks x no OpenMP threads

Minimization stats:
  Stopping criterion = linesearch alpha is zero
  Energy initial, next-to-last, final = 
        -18274.5676242     -18274.6280201     -18274.6280201
  Force two-norm initial, final = 1.16916 0.122176
  Force max component initial, final = 0.108569 0.00970316
  Final line search alpha, max atom move = 4.76837e-07 4.62683e-09
  Iterations, force evaluations = 14 107

MPI task timing breakdown:
Section |  min time  |  avg time  |  max time  |%varavg| %total
---------------------------------------------------------------
Pair    | 0.10543    | 0.11754    | 0.12149    |   1.3 | 38.78
Kspace  | 0.16448    | 0.16971    | 0.17399    |   0.7 | 56.00
Neigh   | 0          | 0          | 0          |   0.0 |  0.00
Comm    | 0.010654   | 0.014328   | 0.022208   |   2.6 |  4.73
Output  | 1.8835e-05 | 1.953e-05  | 2.2888e-05 |   0.0 |  0.01
Modify  | 0          | 0          | 0          |   0.0 |  0.00
Other   |            | 0.001469   |            |       |  0.48

Nlocal:    84 ave 87 max 78 min
Histogram: 1 0 0 0 1 2 3 2 1 2
Nghost:    2614.33 ave 2637 max 2588 min
Histogram: 1 2 1 2 0 0 0 1 3 2
Neighs:    18696.3 ave 19416 max 17266 min
Histogram: 1 0 0 0 2 1 2 2 1 3

Total # of neighbors = 224356
Ave neighs/atom = 222.575
Neighbor list builds = 0
Dangerous builds = 0
CR_UPDATE- 23.300680	23.300680	23.300680	0.000000	0.000000	0.000000
For k = 2, applying strain of 0.998333
Changing box ...
  triclinic box = (0 0.0194211 0) to (23.3007 23.2813 23.3007) with tilt (0 0 0)
WARNING: Resetting reneighboring criteria during minimization (../min.cpp:168)
Ewald initialization ...
  G vector (1/distance) = 0.365066
  estimated absolute RMS force accuracy = 1.9345e-05
  estimated relative force accuracy = 1.34344e-06
  KSpace vectors: actual max1d max3d = 2084 10 4630
                  kxmax kymax kzmax  = 10 10 10
Setting up cg style minimization ...
  Unit style: metal
Memory usage per processor = 4.56141 Mbytes
Step Temp E_pair E_mol TotEng Press 
     110           10   -18274.557            0   -18273.256   -5568.2723 
     117           10    -18274.57            0   -18273.269    -6515.471 
Loop time of 0.158398 on 12 procs for 7 steps with 1008 atoms

100.1% CPU use with 12 MPI tasks x no OpenMP threads

Minimization stats:
  Stopping criterion = linesearch alpha is zero
  Energy initial, next-to-last, final = 
         -18274.557389      -18274.570236      -18274.570236
  Force two-norm initial, final = 0.580861 0.146241
  Force max component initial, final = 0.0539299 0.0136954
  Final line search alpha, max atom move = 4.76837e-07 6.53046e-09
  Iterations, force evaluations = 7 55

MPI task timing breakdown:
Section |  min time  |  avg time  |  max time  |%varavg| %total
---------------------------------------------------------------
Pair    | 0.054972   | 0.061002   | 0.063819   |   1.0 | 38.51
Kspace  | 0.086872   | 0.089247   | 0.091762   |   0.5 | 56.34
Neigh   | 0          | 0          | 0          |   0.0 |  0.00
Comm    | 0.0054145  | 0.0073823  | 0.01153    |   1.9 |  4.66
Output  | 0          | 0          | 0          |   0.0 |  0.00
Modify  | 0          | 0          | 0          |   0.0 |  0.00
Other   |            | 0.000767   |            |       |  0.48

Nlocal:    84 ave 87 max 78 min
Histogram: 1 0 0 0 1 2 3 2 1 2
Nghost:    2608.25 ave 2631 max 2583 min
Histogram: 2 1 1 2 0 0 1 0 4 1
Neighs:    18661.9 ave 19383 max 17242 min
Histogram: 1 0 0 0 2 1 2 2 1 3

Total # of neighbors = 223943
Ave neighs/atom = 222.166
Neighbor list builds = 0
Dangerous builds = 0
CR_UPDATE- 23.300680	23.300680	23.300680	0.000000	0.000000	0.000000
For k = 3, applying strain of 1
Changing box ...
  triclinic box = (0 0 0) to (23.3007 23.3007 23.3007) with tilt (0 0 0)
WARNING: Resetting reneighboring criteria during minimization (../min.cpp:168)
Ewald initialization ...
  G vector (1/distance) = 0.365055
  estimated absolute RMS force accuracy = 1.94166e-05
  estimated relative force accuracy = 1.34841e-06
  KSpace vectors: actual max1d max3d = 2084 10 4630
                  kxmax kymax kzmax  = 10 10 10
Setting up cg style minimization ...
  Unit style: metal
Memory usage per processor = 4.56141 Mbytes
Step Temp E_pair E_mol TotEng Press 
     117           10   -18274.463            0   -18273.161   -9085.9642 
     118           10   -18274.463            0   -18273.161   -9085.9642 
Loop time of 0.0677321 on 12 procs for 1 steps with 1008 atoms

99.6% CPU use with 12 MPI tasks x no OpenMP threads

Minimization stats:
  Stopping criterion = linesearch alpha is zero
  Energy initial, next-to-last, final = 
        -18274.4628899     -18274.4628899     -18274.4628899
  Force two-norm initial, final = 0.0046938 0.0046938
  Force max component initial, final = 0.000338983 0.000338983
  Final line search alpha, max atom move = 0.000488281 1.65519e-07
  Iterations, force evaluations = 1 23

MPI task timing breakdown:
Section |  min time  |  avg time  |  max time  |%varavg| %total
---------------------------------------------------------------
Pair    | 0.02336    | 0.026012   | 0.027228   |   0.6 | 38.40
Kspace  | 0.037311   | 0.038268   | 0.039195   |   0.3 | 56.50
Neigh   | 0          | 0          | 0          |   0.0 |  0.00
Comm    | 0.0022981  | 0.0031348  | 0.0048759  |   1.2 |  4.63
Output  | 0          | 0          | 0          |   0.0 |  0.00
Modify  | 0          | 0          | 0          |   0.0 |  0.00
Other   |            | 0.0003174  |            |       |  0.47

Nlocal:    84 ave 87 max 78 min
Histogram: 1 0 0 0 1 2 3 2 1 2
Nghost:    2602.75 ave 2629 max 2580 min
Histogram: 3 0 1 1 2 0 2 0 2 1
Neighs:    18631.8 ave 19358 max 17213 min
Histogram: 1 0 0 0 2 1 3 1 1 3

Total # of neighbors = 223581
Ave neighs/atom = 221.807
Neighbor list builds = 0
Dangerous builds = 0
CR_UPDATE- 23.300680	23.300680	23.300680	0.000000	0.000000	0.000000
For k = 4, applying strain of 1.00167
Changing box ...
  triclinic box = (0 -0.0194211 0) to (23.3007 23.3201 23.3007) with tilt (0 0 0)
WARNING: Resetting reneighboring criteria during minimization (../min.cpp:168)
Ewald initialization ...
  G vector (1/distance) = 0.365044
  estimated absolute RMS force accuracy = 1.94944e-05
  estimated relative force accuracy = 1.35381e-06
  KSpace vectors: actual max1d max3d = 2084 10 4630
                  kxmax kymax kzmax  = 10 10 10
Setting up cg style minimization ...
  Unit style: metal
Memory usage per processor = 4.56141 Mbytes
Step Temp E_pair E_mol TotEng Press 
     118           10   -18274.282            0   -18272.981   -12565.616 
     128           10   -18274.298            0   -18272.996    -11558.46 
Loop time of 0.349412 on 12 procs for 10 steps with 1008 atoms

99.8% CPU use with 12 MPI tasks x no OpenMP threads

Minimization stats:
  Stopping criterion = linesearch alpha is zero
  Energy initial, next-to-last, final = 
        -18274.2823704     -18274.2979856     -18274.2979856
  Force two-norm initial, final = 0.577391 0.100832
  Force max component initial, final = 0.0531706 0.00939348
  Final line search alpha, max atom move = 9.53674e-07 8.95832e-09
  Iterations, force evaluations = 10 123

MPI task timing breakdown:
Section |  min time  |  avg time  |  max time  |%varavg| %total
---------------------------------------------------------------
Pair    | 0.12162    | 0.13429    | 0.14006    |   1.3 | 38.43
Kspace  | 0.19246    | 0.19707    | 0.2015     |   0.6 | 56.40
Neigh   | 0          | 0          | 0          |   0.0 |  0.00
Comm    | 0.012195   | 0.016457   | 0.025494   |   2.7 |  4.71
Output  | 0          | 0          | 0          |   0.0 |  0.00
Modify  | 0          | 0          | 0          |   0.0 |  0.00
Other   |            | 0.001601   |            |       |  0.46

Nlocal:    84 ave 87 max 78 min
Histogram: 1 0 0 0 1 2 3 2 1 2
Nghost:    2597.75 ave 2625 max 2575 min
Histogram: 2 1 1 2 1 0 2 0 2 1
Neighs:    18599.4 ave 19330 max 17180 min
Histogram: 1 0 0 0 2 1 3 1 1 3

Total # of neighbors = 223193
Ave neighs/atom = 221.422
Neighbor list builds = 0
Dangerous builds = 0
CR_UPDATE- 23.300680	23.300680	23.300680	0.000000	0.000000	0.000000
For k = 5, applying strain of 1.00333
Changing box ...
  triclinic box = (0 -0.0388306 0) to (23.3007 23.3395 23.3007) with tilt (0 0 0)
WARNING: Resetting reneighboring criteria during minimization (../min.cpp:168)
Ewald initialization ...
  G vector (1/distance) = 0.365032
  estimated absolute RMS force accuracy = 1.95788e-05
  estimated relative force accuracy = 1.35968e-06
  KSpace vectors: actual max1d max3d = 2084 10 4630
                  kxmax kymax kzmax  = 10 10 10
Setting up cg style minimization ...
  Unit style: metal
Memory usage per processor = 4.56141 Mbytes
Step Temp E_pair E_mol TotEng Press 
     128           10    -18274.02            0   -18272.718   -16006.254 
     146           10   -18274.081            0   -18272.779   -13827.622 
Loop time of 0.326017 on 12 procs for 18 steps with 1008 atoms

99.7% CPU use with 12 MPI tasks x no OpenMP threads

Minimization stats:
  Stopping criterion = linesearch alpha is zero
  Energy initial, next-to-last, final = 
        -18274.0196796     -18274.0809226     -18274.0809226
  Force two-norm initial, final = 1.1468 0.0791104
  Force max component initial, final = 0.105599 0.00800944
  Final line search alpha, max atom move = 1.90735e-06 1.52768e-08
  Iterations, force evaluations = 18 115

MPI task timing breakdown:
Section |  min time  |  avg time  |  max time  |%varavg| %total
---------------------------------------------------------------
Pair    | 0.11457    | 0.12562    | 0.12995    |   1.3 | 38.53
Kspace  | 0.17844    | 0.18339    | 0.18718    |   0.6 | 56.25
Neigh   | 0          | 0          | 0          |   0.0 |  0.00
Comm    | 0.011404   | 0.015412   | 0.023921   |   2.7 |  4.73
Output  | 0          | 0          | 0          |   0.0 |  0.00
Modify  | 0          | 0          | 0          |   0.0 |  0.00
Other   |            | 0.001597   |            |       |  0.49

Nlocal:    84 ave 87 max 78 min
Histogram: 1 0 0 0 1 2 3 2 1 2
Nghost:    2595 ave 2622 max 2569 min
Histogram: 1 2 1 1 1 1 0 2 2 1
Neighs:    18567.8 ave 19292 max 17151 min
Histogram: 1 0 0 0 2 1 3 1 1 3

Total # of neighbors = 222813
Ave neighs/atom = 221.045
Neighbor list builds = 0
Dangerous builds = 0
CR_UPDATE- 23.300680	23.300680	23.300680	0.000000	0.000000	0.000000
For k = 6, applying strain of 1.005
Changing box ...
  triclinic box = (0 -0.0582517 0) to (23.3007 23.3589 23.3007) with tilt (0 0 0)
WARNING: Resetting reneighboring criteria during minimization (../min.cpp:168)
Ewald initialization ...
  G vector (1/distance) = 0.365021
  estimated absolute RMS force accuracy = 1.96704e-05
  estimated relative force accuracy = 1.36604e-06
  KSpace vectors: actual max1d max3d = 2084 10 4630
                  kxmax kymax kzmax  = 10 10 10
Setting up cg style minimization ...
  Unit style: metal
Memory usage per processor = 4.56141 Mbytes
Step Temp E_pair E_mol TotEng Press 
     146           10   -18273.674            0   -18272.372   -19411.993 
     150           10   -18273.782            0   -18272.481   -16895.121 
     165           10   -18273.811            0   -18272.509   -16149.662 
Loop time of 0.220051 on 12 procs for 19 steps with 1008 atoms

100.0% CPU use with 12 MPI tasks x no OpenMP threads

Minimization stats:
  Stopping criterion = linesearch alpha is zero
  Energy initial, next-to-last, final = 
        -18273.6740015     -18273.8107105     -18273.8107105
  Force two-norm initial, final = 1.71056 0.108808
  Force max component initial, final = 0.157325 0.0111969
  Final line search alpha, max atom move = 9.53674e-07 1.06782e-08
  Iterations, force evaluations = 19 77

MPI task timing breakdown:
Section |  min time  |  avg time  |  max time  |%varavg| %total
---------------------------------------------------------------
Pair    | 0.075853   | 0.084319   | 0.088242   |   1.1 | 38.32
Kspace  | 0.121      | 0.12425    | 0.12708    |   0.5 | 56.47
Neigh   | 0          | 0          | 0          |   0.0 |  0.00
Comm    | 0.0076103  | 0.010291   | 0.015976   |   2.2 |  4.68
Output  | 1.9073e-05 | 2.0047e-05 | 2.2173e-05 |   0.0 |  0.01
Modify  | 0          | 0          | 0          |   0.0 |  0.00
Other   |            | 0.001166   |            |       |  0.53

Nlocal:    84 ave 87 max 78 min
Histogram: 1 0 0 0 1 2 3 2 1 2
Nghost:    2590.58 ave 2615 max 2563 min
Histogram: 1 1 2 1 0 1 1 1 3 1
Neighs:    18534.8 ave 19259 max 17122 min
Histogram: 1 0 0 0 2 1 3 1 1 3

Total # of neighbors = 222418
Ave neighs/atom = 220.653
Neighbor list builds = 0
Dangerous builds = 0
CR_UPDATE- 23.300680	23.300680	23.300680	0.000000	0.000000	0.000000
For k = 0, applying strain of 0.995
Changing box ...
  triclinic box = (0 0 0.0582517) to (23.3007 23.3007 23.2424) with tilt (0 0 0)
WARNING: Resetting reneighboring criteria during minimization (../min.cpp:168)
Ewald initialization ...
  G vector (1/distance) = 0.365089
  estimated absolute RMS force accuracy = 1.92191e-05
  estimated relative force accuracy = 1.33469e-06
  KSpace vectors: actual max1d max3d = 2088 10 4630
                  kxmax kymax kzmax  = 10 10 10
Setting up cg style minimization ...
  Unit style: metal
Memory usage per processor = 4.56141 Mbytes
Step Temp E_pair E_mol TotEng Press 
     165           10   -18274.546            0   -18273.244    1379.1613 
     184           10   -18274.695            0   -18273.393   -2149.4532 
Loop time of 0.327638 on 12 procs for 19 steps with 1008 atoms

100.0% CPU use with 12 MPI tasks x no OpenMP threads

Minimization stats:
  Stopping criterion = linesearch alpha is zero
  Energy initial, next-to-last, final = 
        -18274.5458974      -18274.694615      -18274.694615
  Force two-norm initial, final = 1.88754 0.11494
  Force max component initial, final = 0.159343 0.0108904
  Final line search alpha, max atom move = 4.76837e-07 5.19297e-09
  Iterations, force evaluations = 19 115

MPI task timing breakdown:
Section |  min time  |  avg time  |  max time  |%varavg| %total
---------------------------------------------------------------
Pair    | 0.1137     | 0.12649    | 0.1317     |   1.4 | 38.61
Kspace  | 0.17914    | 0.18432    | 0.18875    |   0.7 | 56.26
Neigh   | 0          | 0          | 0          |   0.0 |  0.00
Comm    | 0.011237   | 0.015216   | 0.023618   |   2.7 |  4.64
Output  | 0          | 0          | 0          |   0.0 |  0.00
Modify  | 0          | 0          | 0          |   0.0 |  0.00
Other   |            | 0.001616   |            |       |  0.49

Nlocal:    84 ave 87 max 78 min
Histogram: 1 0 0 0 1 2 3 2 1 2
Nghost:    2612.25 ave 2634 max 2590 min
Histogram: 2 1 1 2 0 0 3 0 0 3
Neighs:    18725.2 ave 19446 max 17292 min
Histogram: 1 0 0 0 2 1 2 2 1 3

Total # of neighbors = 224703
Ave neighs/atom = 222.92
Neighbor list builds = 0
Dangerous builds = 0
CR_UPDATE- 23.300680	23.300680	23.300680	0.000000	0.000000	0.000000
For k = 1, applying strain of 0.996667
Changing box ...
  triclinic box = (0 0 0.0388306) to (23.3007 23.3007 23.2618) with tilt (0 0 0)
WARNING: Resetting reneighboring criteria during minimization (../min.cpp:168)
Ewald initialization ...
  G vector (1/distance) = 0.365078
  estimated absolute RMS force accuracy = 1.92793e-05
  estimated relative force accuracy = 1.33888e-06
  KSpace vectors: actual max1d max3d = 2084 10 4630
                  kxmax kymax kzmax  = 10 10 10
Setting up cg style minimization ...
  Unit style: metal
Memory usage per processor = 4.56141 Mbytes
Step Temp E_pair E_mol TotEng Press 
     184           10     -18274.6            0   -18273.298   -2146.4817 
     198           10   -18274.664            0   -18273.362   -4427.4412 
Loop time of 0.196603 on 12 procs for 14 steps with 1008 atoms

99.7% CPU use with 12 MPI tasks x no OpenMP threads

Minimization stats:
  Stopping criterion = linesearch alpha is zero
  Energy initial, next-to-last, final = 
        -18274.5997004     -18274.6640249     -18274.6640249
  Force two-norm initial, final = 1.25087 0.126689
  Force max component initial, final = 0.105284 0.0118432
  Final line search alpha, max atom move = 4.76837e-07 5.64728e-09
  Iterations, force evaluations = 14 69

MPI task timing breakdown:
Section |  min time  |  avg time  |  max time  |%varavg| %total
---------------------------------------------------------------
Pair    | 0.068916   | 0.075974   | 0.078605   |   1.0 | 38.64
Kspace  | 0.10737    | 0.11033    | 0.11306    |   0.5 | 56.12
Neigh   | 0          | 0          | 0          |   0.0 |  0.00
Comm    | 0.0068164  | 0.0092799  | 0.014394   |   2.1 |  4.72
Output  | 0          | 0          | 0          |   0.0 |  0.00
Modify  | 0          | 0          | 0          |   0.0 |  0.00
Other   |            | 0.001017   |            |       |  0.52

Nlocal:    84 ave 87 max 78 min
Histogram: 1 0 0 0 1 2 3 2 1 2
Nghost:    2608.5 ave 2634 max 2584 min
Histogram: 3 0 0 1 2 1 1 2 0 2
Neighs:    18695.1 ave 19414 max 17272 min
Histogram: 1 0 0 0 2 1 2 2 1 3

Total # of neighbors = 224341
Ave neighs/atom = 222.561
Neighbor list builds = 0
Dangerous builds = 0
CR_UPDATE- 23.300680	23.300680	23.300680	0.000000	0.000000	0.000000
For k = 2, applying strain of 0.998333
Changing box ...
  triclinic box = (0 0 0.0194211) to (23.3007 23.3007 23.2813) with tilt (0 0 0)
WARNING: Resetting reneighboring criteria during minimization (../min.cpp:168)
Ewald initialization ...
  G vector (1/distance) = 0.365066
  estimated absolute RMS force accuracy = 1.9345e-05
  estimated relative force accuracy = 1.34344e-06
  KSpace vectors: actual max1d max3d = 2084 10 4630
                  kxmax kymax kzmax  = 10 10 10
Setting up cg style minimization ...
  Unit style: metal
Memory usage per processor = 4.56141 Mbytes
Step Temp E_pair E_mol TotEng Press 
     198           10   -18274.571            0   -18273.269    -5633.185 
     200           10   -18274.582            0    -18273.28   -6275.0388 
     206           10   -18274.587            0   -18273.285   -6673.2799 
Loop time of 0.163786 on 12 procs for 8 steps with 1008 atoms

99.9% CPU use with 12 MPI tasks x no OpenMP threads

Minimization stats:
  Stopping criterion = linesearch alpha is zero
  Energy initial, next-to-last, final = 
        -18274.5710626     -18274.5870714     -18274.5870714
  Force two-norm initial, final = 0.621502 0.129457
  Force max component initial, final = 0.0521542 0.0121393
  Final line search alpha, max atom move = 4.76837e-07 5.78846e-09
  Iterations, force evaluations = 8 57

MPI task timing breakdown:
Section |  min time  |  avg time  |  max time  |%varavg| %total
---------------------------------------------------------------
Pair    | 0.057097   | 0.063106   | 0.065594   |   1.0 | 38.53
Kspace  | 0.089774   | 0.092221   | 0.094446   |   0.5 | 56.31
Neigh   | 0          | 0          | 0          |   0.0 |  0.00
Comm    | 0.0056081  | 0.0076185  | 0.011845   |   1.9 |  4.65
Output  | 1.9789e-05 | 2.0166e-05 | 2.2888e-05 |   0.0 |  0.01
Modify  | 0          | 0          | 0          |   0.0 |  0.00
Other   |            | 0.0008203  |            |       |  0.50

Nlocal:    84 ave 87 max 78 min
Histogram: 1 0 0 0 1 2 3 2 1 2
Nghost:    2606.25 ave 2631 max 2584 min
Histogram: 3 0 1 1 1 1 2 0 1 2
Neighs:    18663.6 ave 19386 max 17246 min
Histogram: 1 0 0 0 2 1 2 2 1 3

Total # of neighbors = 223963
Ave neighs/atom = 222.186
Neighbor list builds = 0
Dangerous builds = 0
CR_UPDATE- 23.300680	23.300680	23.300680	0.000000	0.000000	0.000000
For k = 3, applying strain of 1
Changing box ...
  triclinic box = (0 0 0) to (23.3007 23.3007 23.3007) with tilt (0 0 0)
WARNING: Resetting reneighboring criteria during minimization (../min.cpp:168)
Ewald initialization ...
  G vector (1/distance) = 0.365055
  estimated absolute RMS force accuracy = 1.94166e-05
  estimated relative force accuracy = 1.34841e-06
  KSpace vectors: actual max1d max3d = 2084 10 4630
                  kxmax kymax kzmax  = 10 10 10
Setting up cg style minimization ...
  Unit style: metal
Memory usage per processor = 4.56141 Mbytes
Step Temp E_pair E_mol TotEng Press 
     206           10   -18274.463            0   -18273.161   -9085.9642 
     207           10   -18274.463            0   -18273.161   -9085.9642 
Loop time of 0.0675866 on 12 procs for 1 steps with 1008 atoms

100.6% CPU use with 12 MPI tasks x no OpenMP threads

Minimization stats:
  Stopping criterion = linesearch alpha is zero
  Energy initial, next-to-last, final = 
        -18274.4628899     -18274.4628899     -18274.4628899
  Force two-norm initial, final = 0.0046938 0.0046938
  Force max component initial, final = 0.000338983 0.000338983
  Final line search alpha, max atom move = 0.000488281 1.65519e-07
  Iterations, force evaluations = 1 23

MPI task timing breakdown:
Section |  min time  |  avg time  |  max time  |%varavg| %total
---------------------------------------------------------------
Pair    | 0.023457   | 0.026029   | 0.027063   |   0.6 | 38.51
Kspace  | 0.036968   | 0.038082   | 0.039133   |   0.3 | 56.35
Neigh   | 0          | 0          | 0          |   0.0 |  0.00
Comm    | 0.0023248  | 0.0031499  | 0.0048811  |   1.2 |  4.66
Output  | 0          | 0          | 0          |   0.0 |  0.00
Modify  | 0          | 0          | 0          |   0.0 |  0.00
Other   |            | 0.0003254  |            |       |  0.48

Nlocal:    84 ave 87 max 78 min
Histogram: 1 0 0 0 1 2 3 2 1 2
Nghost:    2602.75 ave 2629 max 2580 min
Histogram: 3 0 1 1 2 0 2 0 2 1
Neighs:    18631.8 ave 19358 max 17213 min
Histogram: 1 0 0 0 2 1 3 1 1 3

Total # of neighbors = 223581
Ave neighs/atom = 221.807
Neighbor list builds = 0
Dangerous builds = 0
CR_UPDATE- 23.300680	23.300680	23.300680	0.000000	0.000000	0.000000
For k = 4, applying strain of 1.00167
Changing box ...
  triclinic box = (0 0 -0.0194211) to (23.3007 23.3007 23.3201) with tilt (0 0 0)
WARNING: Resetting reneighboring criteria during minimization (../min.cpp:168)
Ewald initialization ...
  G vector (1/distance) = 0.365044
  estimated absolute RMS force accuracy = 1.94944e-05
  estimated relative force accuracy = 1.35381e-06
  KSpace vectors: actual max1d max3d = 2084 10 4630
                  kxmax kymax kzmax  = 10 10 10
Setting up cg style minimization ...
  Unit style: metal
Memory usage per processor = 4.56141 Mbytes
Step Temp E_pair E_mol TotEng Press 
     207           10   -18274.268            0   -18272.966   -12500.915 
     219           10   -18274.285            0   -18272.984   -11382.175 
Loop time of 0.192014 on 12 procs for 12 steps with 1008 atoms

99.9% CPU use with 12 MPI tasks x no OpenMP threads

Minimization stats:
  Stopping criterion = linesearch alpha is zero
  Energy initial, next-to-last, final = 
         -18274.267544     -18274.2854304     -18274.2854304
  Force two-norm initial, final = 0.61768 0.0774268
  Force max component initial, final = 0.0515026 0.00623898
  Final line search alpha, max atom move = 1.90735e-06 1.18999e-08
  Iterations, force evaluations = 12 67

MPI task timing breakdown:
Section |  min time  |  avg time  |  max time  |%varavg| %total
---------------------------------------------------------------
Pair    | 0.066376   | 0.073684   | 0.076805   |   1.1 | 38.37
Kspace  | 0.10545    | 0.10836    | 0.11158    |   0.5 | 56.43
Neigh   | 0          | 0          | 0          |   0.0 |  0.00
Comm    | 0.006614   | 0.008996   | 0.014002   |   2.1 |  4.69
Output  | 0          | 0          | 0          |   0.0 |  0.00
Modify  | 0          | 0          | 0          |   0.0 |  0.00
Other   |            | 0.000971   |            |       |  0.51

Nlocal:    84 ave 87 max 78 min
Histogram: 1 0 0 0 1 2 3 2 1 2
Nghost:    2596.5 ave 2623 max 2570 min
Histogram: 2 1 1 0 3 0 2 0 1 2
Neighs:    18600.8 ave 19325 max 17185 min
Histogram: 1 0 0 0 2 1 3 1 1 3

Total # of neighbors = 223210
Ave neighs/atom = 221.438
Neighbor list builds = 0
Dangerous builds = 0
CR_UPDATE- 23.300680	23.300680	23.300680	0.000000	0.000000	0.000000
For k = 5, applying strain of 1.00333
Changing box ...
  triclinic box = (0 0 -0.0388306) to (23.3007 23.3007 23.3395) with tilt (0 0 0)
WARNING: Resetting reneighboring criteria during minimization (../min.cpp:168)
Ewald initialization ...
  G vector (1/distance) = 0.365032
  estimated absolute RMS force accuracy = 1.95788e-05
  estimated relative force accuracy = 1.35968e-06
  KSpace vectors: actual max1d max3d = 2084 10 4630
                  kxmax kymax kzmax  = 10 10 10
Setting up cg style minimization ...
  Unit style: metal
Memory usage per processor = 4.56141 Mbytes
Step Temp E_pair E_mol TotEng Press 
     219           10   -18273.999            0   -18272.698   -15879.647 
     233           10   -18274.064            0   -18272.762   -13617.542 
Loop time of 0.19743 on 12 procs for 14 steps with 1008 atoms

99.9% CPU use with 12 MPI tasks x no OpenMP threads

Minimization stats:
  Stopping criterion = linesearch alpha is zero
  Energy initial, next-to-last, final = 
        -18273.9991648     -18274.0635027     -18274.0635027
  Force two-norm initial, final = 1.22689 0.127303
  Force max component initial, final = 0.101998 0.0126273
  Final line search alpha, max atom move = 4.76837e-07 6.02118e-09
  Iterations, force evaluations = 14 69

MPI task timing breakdown:
Section |  min time  |  avg time  |  max time  |%varavg| %total
---------------------------------------------------------------
Pair    | 0.068729   | 0.075712   | 0.079315   |   1.1 | 38.35
Kspace  | 0.10796    | 0.11154    | 0.11472    |   0.6 | 56.50
Neigh   | 0          | 0          | 0          |   0.0 |  0.00
Comm    | 0.0067177  | 0.0091703  | 0.014242   |   2.1 |  4.64
Output  | 0          | 0          | 0          |   0.0 |  0.00
Modify  | 0          | 0          | 0          |   0.0 |  0.00
Other   |            | 0.001006   |            |       |  0.51

Nlocal:    84 ave 87 max 78 min
Histogram: 1 0 0 0 1 2 3 2 1 2
Nghost:    2593.5 ave 2621 max 2566 min
Histogram: 2 0 2 0 3 0 2 0 1 2
Neighs:    18569 ave 19288 max 17149 min
Histogram: 1 0 0 0 2 1 3 1 1 3

Total # of neighbors = 222828
Ave neighs/atom = 221.06
Neighbor list builds = 0
Dangerous builds = 0
CR_UPDATE- 23.300680	23.300680	23.300680	0.000000	0.000000	0.000000
For k = 6, applying strain of 1.005
Changing box ...
  triclinic box = (0 0 -0.0582517) to (23.3007 23.3007 23.3589) with tilt (0 0 0)
WARNING: Resetting reneighboring criteria during minimization (../min.cpp:168)
Ewald initialization ...
  G vector (1/distance) = 0.365021
  estimated absolute RMS force accuracy = 1.96704e-05
  estimated relative force accuracy = 1.36604e-06
  KSpace vectors: actual max1d max3d = 2084 10 4630
                  kxmax kymax kzmax  = 10 10 10
Setting up cg style minimization ...
  Unit style: metal
Memory usage per processor = 4.56141 Mbytes
Step Temp E_pair E_mol TotEng Press 
     233           10   -18273.651            0   -18272.349   -19224.723 
     250           10   -18273.796            0   -18272.494     -15778.8 
     258           10   -18273.798            0   -18272.496   -15722.997 
Loop time of 0.366469 on 12 procs for 25 steps with 1008 atoms

100.1% CPU use with 12 MPI tasks x no OpenMP threads

Minimization stats:
  Stopping criterion = linesearch alpha is zero
  Energy initial, next-to-last, final = 
        -18273.6505537     -18273.7976621     -18273.7976621
  Force two-norm initial, final = 1.82992 0.0829249
  Force max component initial, final = 0.151671 0.00951317
  Final line search alpha, max atom move = 9.53674e-07 9.07247e-09
  Iterations, force evaluations = 25 129

MPI task timing breakdown:
Section |  min time  |  avg time  |  max time  |%varavg| %total
---------------------------------------------------------------
Pair    | 0.12647    | 0.14019    | 0.14644    |   1.5 | 38.25
Kspace  | 0.20072    | 0.2071     | 0.21231    |   0.8 | 56.51
Neigh   | 0          | 0          | 0          |   0.0 |  0.00
Comm    | 0.012747   | 0.017302   | 0.026876   |   2.8 |  4.72
Output  | 1.812e-05  | 1.8756e-05 | 2.0981e-05 |   0.0 |  0.01
Modify  | 0          | 0          | 0          |   0.0 |  0.00
Other   |            | 0.001855   |            |       |  0.51

Nlocal:    84 ave 87 max 78 min
Histogram: 1 0 0 0 1 2 3 2 1 2
Nghost:    2586.75 ave 2621 max 2554 min
Histogram: 2 0 1 0 3 2 0 3 0 1
Neighs:    18538 ave 19246 max 17128 min
Histogram: 1 0 0 0 2 1 2 2 1 3

Total # of neighbors = 222456
Ave neighs/atom = 220.69
Neighbor list builds = 0
Dangerous builds = 0
CR_UPDATE- 23.300680	23.300680	23.300680	0.000000	0.000000	0.000000
For k = 0, applying strain of 0.995
Changing box ...
  triclinic box = (0 0 0) to (23.3007 23.3007 23.3007) with tilt (-0.116503 0 0)
WARNING: Resetting reneighboring criteria during minimization (../min.cpp:168)
Ewald initialization ...
  G vector (1/distance) = 0.365055
  estimated absolute RMS force accuracy = 1.94166e-05
  estimated relative force accuracy = 1.34841e-06
  KSpace vectors: actual max1d max3d = 2079 10 4630
                  kxmax kymax kzmax  = 10 10 10
Setting up cg style minimization ...
  Unit style: metal
Memory usage per processor = 4.56141 Mbytes
Step Temp E_pair E_mol TotEng Press 
     258           10   -18274.265            0   -18272.963   -9073.1469 
     269           10   -18274.319            0   -18273.017   -9064.9149 
Loop time of 0.18789 on 12 procs for 11 steps with 1008 atoms

100.0% CPU use with 12 MPI tasks x no OpenMP threads

Minimization stats:
  Stopping criterion = linesearch alpha is zero
  Energy initial, next-to-last, final = 
        -18274.2648011      -18274.318762      -18274.318762
  Force two-norm initial, final = 1.21767 0.162331
  Force max component initial, final = 0.125 0.0132942
  Final line search alpha, max atom move = 2.38419e-07 3.16959e-09
  Iterations, force evaluations = 11 65

MPI task timing breakdown:
Section |  min time  |  avg time  |  max time  |%varavg| %total
---------------------------------------------------------------
Pair    | 0.066023   | 0.072295   | 0.076234   |   1.0 | 38.48
Kspace  | 0.10289    | 0.10596    | 0.10851    |   0.5 | 56.39
Neigh   | 0          | 0          | 0          |   0.0 |  0.00
Comm    | 0.0064473  | 0.008693   | 0.013484   |   2.0 |  4.63
Output  | 0          | 0          | 0          |   0.0 |  0.00
Modify  | 0          | 0          | 0          |   0.0 |  0.00
Other   |            | 0.0009413  |            |       |  0.50

Nlocal:    84 ave 87 max 78 min
Histogram: 1 0 0 0 1 2 3 2 1 2
Nghost:    2602.75 ave 2629 max 2580 min
Histogram: 3 0 1 1 2 0 2 0 2 1
Neighs:    18633.5 ave 19358 max 17201 min
Histogram: 1 0 0 0 2 1 2 2 1 3

Total # of neighbors = 223602
Ave neighs/atom = 221.827
Neighbor list builds = 0
Dangerous builds = 0
CR_UPDATE- 23.300680	23.300680	23.300680	0.000000	0.000000	0.000000
For k = 1, applying strain of 0.996667
Changing box ...
  triclinic box = (0 0 0) to (23.3007 23.3007 23.3007) with tilt (-0.077661 0 0)
WARNING: Resetting reneighboring criteria during minimization (../min.cpp:168)
Ewald initialization ...
  G vector (1/distance) = 0.365055
  estimated absolute RMS force accuracy = 1.94166e-05
  estimated relative force accuracy = 1.34841e-06
  KSpace vectors: actual max1d max3d = 2081 10 4630
                  kxmax kymax kzmax  = 10 10 10
Setting up cg style minimization ...
  Unit style: metal
Memory usage per processor = 4.56141 Mbytes
Step Temp E_pair E_mol TotEng Press 
     269           10   -18274.359            0   -18273.057   -9082.0157 
     278           10   -18274.383            0   -18273.081   -9075.1744 
Loop time of 0.169247 on 12 procs for 9 steps with 1008 atoms

99.7% CPU use with 12 MPI tasks x no OpenMP threads

Minimization stats:
  Stopping criterion = linesearch alpha is zero
  Energy initial, next-to-last, final = 
        -18274.3585548     -18274.3829851     -18274.3829851
  Force two-norm initial, final = 0.811703 0.133021
  Force max component initial, final = 0.0832469 0.013251
  Final line search alpha, max atom move = 4.76837e-07 6.31858e-09
  Iterations, force evaluations = 9 59

MPI task timing breakdown:
Section |  min time  |  avg time  |  max time  |%varavg| %total
---------------------------------------------------------------
Pair    | 0.058841   | 0.065071   | 0.067776   |   0.9 | 38.45
Kspace  | 0.093081   | 0.095353   | 0.09743    |   0.4 | 56.34
Neigh   | 0          | 0          | 0          |   0.0 |  0.00
Comm    | 0.0058851  | 0.0079756  | 0.012331   |   1.9 |  4.71
Output  | 0          | 0          | 0          |   0.0 |  0.00
Modify  | 0          | 0          | 0          |   0.0 |  0.00
Other   |            | 0.0008467  |            |       |  0.50

Nlocal:    84 ave 87 max 78 min
Histogram: 1 0 0 0 1 2 3 2 1 2
Nghost:    2602.75 ave 2629 max 2580 min
Histogram: 3 0 1 1 2 0 2 0 2 1
Neighs:    18634.8 ave 19358 max 17209 min
Histogram: 1 0 0 0 2 1 2 2 1 3

Total # of neighbors = 223618
Ave neighs/atom = 221.843
Neighbor list builds = 0
Dangerous builds = 0
CR_UPDATE- 23.300680	23.300680	23.300680	0.000000	0.000000	0.000000
For k = 2, applying strain of 0.998333
Changing box ...
  triclinic box = (0 0 0) to (23.3007 23.3007 23.3007) with tilt (-0.038842 0 0)
WARNING: Resetting reneighboring criteria during minimization (../min.cpp:168)
Ewald initialization ...
  G vector (1/distance) = 0.365055
  estimated absolute RMS force accuracy = 1.94166e-05
  estimated relative force accuracy = 1.34841e-06
  KSpace vectors: actual max1d max3d = 2082 10 4630
                  kxmax kymax kzmax  = 10 10 10
Setting up cg style minimization ...
  Unit style: metal
Memory usage per processor = 4.56141 Mbytes
Step Temp E_pair E_mol TotEng Press 
     278           10   -18274.422            0   -18273.121     -9085.73 
     283           10   -18274.428            0   -18273.126    -9076.092 
Loop time of 0.14767 on 12 procs for 5 steps with 1008 atoms

99.8% CPU use with 12 MPI tasks x no OpenMP threads

Minimization stats:
  Stopping criterion = linesearch alpha is zero
  Energy initial, next-to-last, final = 
        -18274.4223216     -18274.4277735     -18274.4277735
  Force two-norm initial, final = 0.405999 0.128367
  Force max component initial, final = 0.0416205 0.0123956
  Final line search alpha, max atom move = 4.76837e-07 5.91067e-09
  Iterations, force evaluations = 5 51

MPI task timing breakdown:
Section |  min time  |  avg time  |  max time  |%varavg| %total
---------------------------------------------------------------
Pair    | 0.052206   | 0.056916   | 0.059548   |   0.8 | 38.54
Kspace  | 0.081509   | 0.083186   | 0.085274   |   0.4 | 56.33
Neigh   | 0          | 0          | 0          |   0.0 |  0.00
Comm    | 0.0050323  | 0.0068664  | 0.010713   |   1.8 |  4.65
Output  | 0          | 0          | 0          |   0.0 |  0.00
Modify  | 0          | 0          | 0          |   0.0 |  0.00
Other   |            | 0.0007023  |            |       |  0.48

Nlocal:    84 ave 87 max 78 min
Histogram: 1 0 0 0 1 2 3 2 1 2
Nghost:    2602.75 ave 2629 max 2580 min
Histogram: 3 0 1 1 2 0 2 0 2 1
Neighs:    18632.9 ave 19360 max 17213 min
Histogram: 1 0 0 0 2 1 3 1 1 3

Total # of neighbors = 223595
Ave neighs/atom = 221.82
Neighbor list builds = 0
Dangerous builds = 0
CR_UPDATE- 23.300680	23.300680	23.300680	0.000000	0.000000	0.000000
For k = 3, applying strain of 1
Changing box ...
  triclinic box = (0 0 0) to (23.3007 23.3007 23.3007) with tilt (0 0 0)
WARNING: Resetting reneighboring criteria during minimization (../min.cpp:168)
Ewald initialization ...
  G vector (1/distance) = 0.365055
  estimated absolute RMS force accuracy = 1.94166e-05
  estimated relative force accuracy = 1.34841e-06
  KSpace vectors: actual max1d max3d = 2084 10 4630
                  kxmax kymax kzmax  = 10 10 10
Setting up cg style minimization ...
  Unit style: metal
Memory usage per processor = 4.56141 Mbytes
Step Temp E_pair E_mol TotEng Press 
     283           10   -18274.463            0   -18273.161   -9085.9642 
     284           10   -18274.463            0   -18273.161   -9085.9642 
Loop time of 0.0674181 on 12 procs for 1 steps with 1008 atoms

100.1% CPU use with 12 MPI tasks x no OpenMP threads

Minimization stats:
  Stopping criterion = linesearch alpha is zero
  Energy initial, next-to-last, final = 
        -18274.4628899     -18274.4628899     -18274.4628899
  Force two-norm initial, final = 0.0046938 0.0046938
  Force max component initial, final = 0.000338983 0.000338983
  Final line search alpha, max atom move = 0.000488281 1.65519e-07
  Iterations, force evaluations = 1 23

MPI task timing breakdown:
Section |  min time  |  avg time  |  max time  |%varavg| %total
---------------------------------------------------------------
Pair    | 0.023497   | 0.026069   | 0.026962   |   0.6 | 38.67
Kspace  | 0.036722   | 0.037883   | 0.038741   |   0.3 | 56.19
Neigh   | 0          | 0          | 0          |   0.0 |  0.00
Comm    | 0.0023222  | 0.00316    | 0.0048797  |   1.2 |  4.69
Output  | 0          | 0          | 0          |   0.0 |  0.00
Modify  | 0          | 0          | 0          |   0.0 |  0.00
Other   |            | 0.0003064  |            |       |  0.45

Nlocal:    84 ave 87 max 78 min
Histogram: 1 0 0 0 1 2 3 2 1 2
Nghost:    2602.75 ave 2629 max 2580 min
Histogram: 3 0 1 1 2 0 2 0 2 1
Neighs:    18631.8 ave 19358 max 17213 min
Histogram: 1 0 0 0 2 1 3 1 1 3

Total # of neighbors = 223581
Ave neighs/atom = 221.807
Neighbor list builds = 0
Dangerous builds = 0
CR_UPDATE- 23.300680	23.300680	23.300680	0.000000	0.000000	0.000000
For k = 4, applying strain of 1.00167
Changing box ...
  triclinic box = (0 0 0) to (23.3007 23.3007 23.3007) with tilt (0.038842 0 0)
WARNING: Resetting reneighboring criteria during minimization (../min.cpp:168)
Ewald initialization ...
  G vector (1/distance) = 0.365055
  estimated absolute RMS force accuracy = 1.94166e-05
  estimated relative force accuracy = 1.34841e-06
  KSpace vectors: actual max1d max3d = 2082 10 4630
                  kxmax kymax kzmax  = 10 10 10
Setting up cg style minimization ...
  Unit style: metal
Memory usage per processor = 4.56141 Mbytes
Step Temp E_pair E_mol TotEng Press 
     284           10   -18274.473            0   -18273.171   -9080.9745 
     288           10   -18274.477            0   -18273.176   -9083.0778 
Loop time of 0.14064 on 12 procs for 4 steps with 1008 atoms

100.2% CPU use with 12 MPI tasks x no OpenMP threads

Minimization stats:
  Stopping criterion = linesearch alpha is zero
  Energy initial, next-to-last, final = 
        -18274.4730665     -18274.4774874     -18274.4774874
  Force two-norm initial, final = 0.405905 0.152254
  Force max component initial, final = 0.0413623 0.0168036
  Final line search alpha, max atom move = 4.76837e-07 8.0126e-09
  Iterations, force evaluations = 4 49

MPI task timing breakdown:
Section |  min time  |  avg time  |  max time  |%varavg| %total
---------------------------------------------------------------
Pair    | 0.049146   | 0.05432    | 0.056371   |   0.9 | 38.62
Kspace  | 0.076821   | 0.079128   | 0.081059   |   0.4 | 56.26
Neigh   | 0          | 0          | 0          |   0.0 |  0.00
Comm    | 0.0047913  | 0.0065291  | 0.010213   |   1.8 |  4.64
Output  | 0          | 0          | 0          |   0.0 |  0.00
Modify  | 0          | 0          | 0          |   0.0 |  0.00
Other   |            | 0.0006632  |            |       |  0.47

Nlocal:    84 ave 87 max 78 min
Histogram: 1 0 0 0 1 2 3 2 1 2
Nghost:    2602.75 ave 2629 max 2580 min
Histogram: 3 0 1 1 2 0 2 0 2 1
Neighs:    18631.5 ave 19359 max 17214 min
Histogram: 1 0 0 0 2 1 3 1 1 3

Total # of neighbors = 223578
Ave neighs/atom = 221.804
Neighbor list builds = 0
Dangerous builds = 0
CR_UPDATE- 23.300680	23.300680	23.300680	0.000000	0.000000	0.000000
For k = 5, applying strain of 1.00333
Changing box ...
  triclinic box = (0 0 0) to (23.3007 23.3007 23.3007) with tilt (0.077661 0 0)
WARNING: Resetting reneighboring criteria during minimization (../min.cpp:168)
Ewald initialization ...
  G vector (1/distance) = 0.365055
  estimated absolute RMS force accuracy = 1.94166e-05
  estimated relative force accuracy = 1.34841e-06
  KSpace vectors: actual max1d max3d = 2081 10 4630
                  kxmax kymax kzmax  = 10 10 10
Setting up cg style minimization ...
  Unit style: metal
Memory usage per processor = 4.56141 Mbytes
Step Temp E_pair E_mol TotEng Press 
     288           10   -18274.453            0   -18273.152   -9070.7687 
     297           10   -18274.475            0   -18273.174   -9073.5454 
Loop time of 0.169951 on 12 procs for 9 steps with 1008 atoms

99.8% CPU use with 12 MPI tasks x no OpenMP threads

Minimization stats:
  Stopping criterion = linesearch alpha is zero
  Energy initial, next-to-last, final = 
        -18274.4532592     -18274.4751588     -18274.4751588
  Force two-norm initial, final = 0.811656 0.133539
  Force max component initial, final = 0.0826656 0.0135953
  Final line search alpha, max atom move = 4.76837e-07 6.48275e-09
  Iterations, force evaluations = 9 59

MPI task timing breakdown:
Section |  min time  |  avg time  |  max time  |%varavg| %total
---------------------------------------------------------------
Pair    | 0.059134   | 0.06527    | 0.068526   |   1.0 | 38.41
Kspace  | 0.092527   | 0.09566    | 0.098064   |   0.5 | 56.29
Neigh   | 0          | 0          | 0          |   0.0 |  0.00
Comm    | 0.0060942  | 0.0081695  | 0.012514   |   1.9 |  4.81
Output  | 0          | 0          | 0          |   0.0 |  0.00
Modify  | 0          | 0          | 0          |   0.0 |  0.00
Other   |            | 0.0008517  |            |       |  0.50

Nlocal:    84 ave 87 max 78 min
Histogram: 1 0 0 0 1 2 3 2 1 2
Nghost:    2602.75 ave 2629 max 2580 min
Histogram: 3 0 1 1 2 0 2 0 2 1
Neighs:    18632.6 ave 19354 max 17218 min
Histogram: 1 0 0 0 2 1 3 1 1 3

Total # of neighbors = 223591
Ave neighs/atom = 221.816
Neighbor list builds = 0
Dangerous builds = 0
CR_UPDATE- 23.300680	23.300680	23.300680	0.000000	0.000000	0.000000
For k = 6, applying strain of 1.005
Changing box ...
  triclinic box = (0 0 0) to (23.3007 23.3007 23.3007) with tilt (0.116503 0 0)
WARNING: Resetting reneighboring criteria during minimization (../min.cpp:168)
Ewald initialization ...
  G vector (1/distance) = 0.365055
  estimated absolute RMS force accuracy = 1.94166e-05
  estimated relative force accuracy = 1.34841e-06
  KSpace vectors: actual max1d max3d = 2079 10 4630
                  kxmax kymax kzmax  = 10 10 10
Setting up cg style minimization ...
  Unit style: metal
Memory usage per processor = 4.56141 Mbytes
Step Temp E_pair E_mol TotEng Press 
     297           10   -18274.403            0   -18273.101   -9055.3447 
     300           10   -18274.444            0   -18273.142   -9080.0209 
     312           10   -18274.458            0   -18273.157   -9080.2124 
Loop time of 0.202251 on 12 procs for 15 steps with 1008 atoms

100.0% CPU use with 12 MPI tasks x no OpenMP threads

Minimization stats:
  Stopping criterion = linesearch alpha is zero
  Energy initial, next-to-last, final = 
        -18274.4028844      -18274.458303      -18274.458303
  Force two-norm initial, final = 1.21763 0.115121
  Force max component initial, final = 0.123892 0.0113481
  Final line search alpha, max atom move = 4.76837e-07 5.41119e-09
  Iterations, force evaluations = 15 71

MPI task timing breakdown:
Section |  min time  |  avg time  |  max time  |%varavg| %total
---------------------------------------------------------------
Pair    | 0.070687   | 0.078104   | 0.081028   |   1.1 | 38.62
Kspace  | 0.10976    | 0.11355    | 0.11681    |   0.6 | 56.14
Neigh   | 0          | 0          | 0          |   0.0 |  0.00
Comm    | 0.0070486  | 0.0095394  | 0.014808   |   2.1 |  4.72
Output  | 1.812e-05  | 1.8934e-05 | 2.2173e-05 |   0.0 |  0.01
Modify  | 0          | 0          | 0          |   0.0 |  0.00
Other   |            | 0.00104    |            |       |  0.51

Nlocal:    84 ave 87 max 78 min
Histogram: 1 0 0 0 1 2 3 2 1 2
Nghost:    2602.75 ave 2629 max 2580 min
Histogram: 3 0 1 1 2 0 2 0 2 1
Neighs:    18631.2 ave 19353 max 17220 min
Histogram: 1 0 0 0 2 1 3 1 1 3

Total # of neighbors = 223575
Ave neighs/atom = 221.801
Neighbor list builds = 0
Dangerous builds = 0
CR_UPDATE- 23.300680	23.300680	23.300680	0.000000	0.000000	0.000000
For k = 0, applying strain of 0.995
Changing box ...
  triclinic box = (0 0 0) to (23.3007 23.3007 23.3007) with tilt (0 -0.116503 0)
WARNING: Resetting reneighboring criteria during minimization (../min.cpp:168)
Ewald initialization ...
  G vector (1/distance) = 0.365055
  estimated absolute RMS force accuracy = 1.94166e-05
  estimated relative force accuracy = 1.34841e-06
  KSpace vectors: actual max1d max3d = 2079 10 4630
                  kxmax kymax kzmax  = 10 10 10
Setting up cg style minimization ...
  Unit style: metal
Memory usage per processor = 4.56141 Mbytes
Step Temp E_pair E_mol TotEng Press 
     312           10   -18274.301            0   -18272.999   -8985.3529 
     328           10    -18274.36            0   -18273.058   -9001.2303 
Loop time of 0.204199 on 12 procs for 16 steps with 1008 atoms

100.0% CPU use with 12 MPI tasks x no OpenMP threads

Minimization stats:
  Stopping criterion = linesearch alpha is zero
  Energy initial, next-to-last, final = 
        -18274.3005725     -18274.3597366     -18274.3597366
  Force two-norm initial, final = 1.22782 0.112425
  Force max component initial, final = 0.110474 0.00797167
  Final line search alpha, max atom move = 9.53674e-07 7.60238e-09
  Iterations, force evaluations = 16 71

MPI task timing breakdown:
Section |  min time  |  avg time  |  max time  |%varavg| %total
---------------------------------------------------------------
Pair    | 0.070833   | 0.078447   | 0.08207    |   1.1 | 38.42
Kspace  | 0.11185    | 0.11494    | 0.11807    |   0.5 | 56.29
Neigh   | 0          | 0          | 0          |   0.0 |  0.00
Comm    | 0.007278   | 0.0097318  | 0.014926   |   2.1 |  4.77
Output  | 0          | 0          | 0          |   0.0 |  0.00
Modify  | 0          | 0          | 0          |   0.0 |  0.00
Other   |            | 0.001078   |            |       |  0.53

Nlocal:    84 ave 87 max 78 min
Histogram: 1 0 0 0 1 2 3 2 1 2
Nghost:    2602.75 ave 2629 max 2580 min
Histogram: 3 0 1 1 2 0 2 0 2 1
Neighs:    18632.5 ave 19358 max 17214 min
Histogram: 1 0 0 0 2 1 3 1 1 3

Total # of neighbors = 223590
Ave neighs/atom = 221.815
Neighbor list builds = 0
Dangerous builds = 0
CR_UPDATE- 23.300680	23.300680	23.300680	0.000000	0.000000	0.000000
For k = 1, applying strain of 0.996667
Changing box ...
  triclinic box = (0 0 0) to (23.3007 23.3007 23.3007) with tilt (0 -0.077661 0)
WARNING: Resetting reneighboring criteria during minimization (../min.cpp:168)
Ewald initialization ...
  G vector (1/distance) = 0.365055
  estimated absolute RMS force accuracy = 1.94166e-05
  estimated relative force accuracy = 1.34841e-06
  KSpace vectors: actual max1d max3d = 2081 10 4630
                  kxmax kymax kzmax  = 10 10 10
Setting up cg style minimization ...
  Unit style: metal
Memory usage per processor = 4.56141 Mbytes
Step Temp E_pair E_mol TotEng Press 
     328           10    -18274.38            0   -18273.078   -9023.0696 
     336           10   -18274.403            0   -18273.101   -9022.1363 
Loop time of 0.168664 on 12 procs for 8 steps with 1008 atoms

100.1% CPU use with 12 MPI tasks x no OpenMP threads

Minimization stats:
  Stopping criterion = linesearch alpha is zero
  Energy initial, next-to-last, final = 
        -18274.3799575     -18274.4028561     -18274.4028561
  Force two-norm initial, final = 0.818417 0.164751
  Force max component initial, final = 0.0735137 0.0138888
  Final line search alpha, max atom move = 2.38419e-07 3.31134e-09
  Iterations, force evaluations = 8 59

MPI task timing breakdown:
Section |  min time  |  avg time  |  max time  |%varavg| %total
---------------------------------------------------------------
Pair    | 0.058855   | 0.065112   | 0.067375   |   1.0 | 38.60
Kspace  | 0.091856   | 0.094669   | 0.097195   |   0.5 | 56.13
Neigh   | 0          | 0          | 0          |   0.0 |  0.00
Comm    | 0.0059886  | 0.0080608  | 0.012411   |   1.9 |  4.78
Output  | 0          | 0          | 0          |   0.0 |  0.00
Modify  | 0          | 0          | 0          |   0.0 |  0.00
Other   |            | 0.0008222  |            |       |  0.49

Nlocal:    84 ave 87 max 78 min
Histogram: 1 0 0 0 1 2 3 2 1 2
Nghost:    2602.75 ave 2629 max 2580 min
Histogram: 3 0 1 1 2 0 2 0 2 1
Neighs:    18631.8 ave 19363 max 17209 min
Histogram: 1 0 0 0 2 1 3 1 1 3

Total # of neighbors = 223582
Ave neighs/atom = 221.808
Neighbor list builds = 0
Dangerous builds = 0
CR_UPDATE- 23.300680	23.300680	23.300680	0.000000	0.000000	0.000000
For k = 2, applying strain of 0.998333
Changing box ...
  triclinic box = (0 0 0) to (23.3007 23.3007 23.3007) with tilt (0 -0.038842 0)
WARNING: Resetting reneighboring criteria during minimization (../min.cpp:168)
Ewald initialization ...
  G vector (1/distance) = 0.365055
  estimated absolute RMS force accuracy = 1.94166e-05
  estimated relative force accuracy = 1.34841e-06
  KSpace vectors: actual max1d max3d = 2082 10 4630
                  kxmax kymax kzmax  = 10 10 10
Setting up cg style minimization ...
  Unit style: metal
Memory usage per processor = 4.56141 Mbytes
Step Temp E_pair E_mol TotEng Press 
     336           10   -18274.432            0   -18273.131   -9056.1857 
     345           10   -18274.438            0   -18273.136   -9050.4688 
Loop time of 0.157474 on 12 procs for 9 steps with 1008 atoms

99.8% CPU use with 12 MPI tasks x no OpenMP threads

Minimization stats:
  Stopping criterion = linesearch alpha is zero
  Energy initial, next-to-last, final = 
        -18274.4321541     -18274.4380221     -18274.4380221
  Force two-norm initial, final = 0.409323 0.0754854
  Force max component initial, final = 0.0366781 0.00615626
  Final line search alpha, max atom move = 1.90735e-06 1.17421e-08
  Iterations, force evaluations = 9 55

MPI task timing breakdown:
Section |  min time  |  avg time  |  max time  |%varavg| %total
---------------------------------------------------------------
Pair    | 0.054647   | 0.060646   | 0.063074   |   1.0 | 38.51
Kspace  | 0.086586   | 0.088638   | 0.090588   |   0.4 | 56.29
Neigh   | 0          | 0          | 0          |   0.0 |  0.00
Comm    | 0.0054767  | 0.0074     | 0.011477   |   1.9 |  4.70
Output  | 0          | 0          | 0          |   0.0 |  0.00
Modify  | 0          | 0          | 0          |   0.0 |  0.00
Other   |            | 0.0007897  |            |       |  0.50

Nlocal:    84 ave 87 max 78 min
Histogram: 1 0 0 0 1 2 3 2 1 2
Nghost:    2602.75 ave 2629 max 2580 min
Histogram: 3 0 1 1 2 0 2 0 2 1
Neighs:    18631.1 ave 19360 max 17207 min
Histogram: 1 0 0 0 2 1 3 1 1 3

Total # of neighbors = 223573
Ave neighs/atom = 221.799
Neighbor list builds = 0
Dangerous builds = 0
CR_UPDATE- 23.300680	23.300680	23.300680	0.000000	0.000000	0.000000
For k = 3, applying strain of 1
Changing box ...
  triclinic box = (0 0 0) to (23.3007 23.3007 23.3007) with tilt (0 0 0)
WARNING: Resetting reneighboring criteria during minimization (../min.cpp:168)
Ewald initialization ...
  G vector (1/distance) = 0.365055
  estimated absolute RMS force accuracy = 1.94166e-05
  estimated relative force accuracy = 1.34841e-06
  KSpace vectors: actual max1d max3d = 2084 10 4630
                  kxmax kymax kzmax  = 10 10 10
Setting up cg style minimization ...
  Unit style: metal
Memory usage per processor = 4.56141 Mbytes
Step Temp E_pair E_mol TotEng Press 
     345           10   -18274.463            0   -18273.161   -9085.9642 
     346           10   -18274.463            0   -18273.161   -9085.9642 
Loop time of 0.0674479 on 12 procs for 1 steps with 1008 atoms

99.7% CPU use with 12 MPI tasks x no OpenMP threads

Minimization stats:
  Stopping criterion = linesearch alpha is zero
  Energy initial, next-to-last, final = 
        -18274.4628899     -18274.4628899     -18274.4628899
  Force two-norm initial, final = 0.0046938 0.0046938
  Force max component initial, final = 0.000338983 0.000338983
  Final line search alpha, max atom move = 0.000488281 1.65519e-07
  Iterations, force evaluations = 1 23

MPI task timing breakdown:
Section |  min time  |  avg time  |  max time  |%varavg| %total
---------------------------------------------------------------
Pair    | 0.02386    | 0.026061   | 0.026962   |   0.6 | 38.64
Kspace  | 0.036617   | 0.037827   | 0.038637   |   0.3 | 56.08
Neigh   | 0          | 0          | 0          |   0.0 |  0.00
Comm    | 0.0024195  | 0.0032371  | 0.005012   |   1.2 |  4.80
Output  | 0          | 0          | 0          |   0.0 |  0.00
Modify  | 0          | 0          | 0          |   0.0 |  0.00
Other   |            | 0.0003229  |            |       |  0.48

Nlocal:    84 ave 87 max 78 min
Histogram: 1 0 0 0 1 2 3 2 1 2
Nghost:    2602.75 ave 2629 max 2580 min
Histogram: 3 0 1 1 2 0 2 0 2 1
Neighs:    18631.8 ave 19358 max 17213 min
Histogram: 1 0 0 0 2 1 3 1 1 3

Total # of neighbors = 223581
Ave neighs/atom = 221.807
Neighbor list builds = 0
Dangerous builds = 0
CR_UPDATE- 23.300680	23.300680	23.300680	0.000000	0.000000	0.000000
For k = 4, applying strain of 1.00167
Changing box ...
  triclinic box = (0 0 0) to (23.3007 23.3007 23.3007) with tilt (0 0.038842 0)
WARNING: Resetting reneighboring criteria during minimization (../min.cpp:168)
Ewald initialization ...
  G vector (1/distance) = 0.365055
  estimated absolute RMS force accuracy = 1.94166e-05
  estimated relative force accuracy = 1.34841e-06
  KSpace vectors: actual max1d max3d = 2082 10 4630
                  kxmax kymax kzmax  = 10 10 10
Setting up cg style minimization ...
  Unit style: metal
Memory usage per processor = 4.56141 Mbytes
Step Temp E_pair E_mol TotEng Press 
     346           10   -18274.461            0   -18273.159   -9109.6191 
     350           10   -18274.467            0   -18273.165   -9094.1782 
     352           10   -18274.467            0   -18273.166   -9098.6255 
Loop time of 0.146349 on 12 procs for 6 steps with 1008 atoms

99.6% CPU use with 12 MPI tasks x no OpenMP threads

Minimization stats:
  Stopping criterion = linesearch alpha is zero
  Energy initial, next-to-last, final = 
        -18274.4610045     -18274.4672231     -18274.4672231
  Force two-norm initial, final = 0.409315 0.105415
  Force max component initial, final = 0.036706 0.0101781
  Final line search alpha, max atom move = 9.53674e-07 9.70655e-09
  Iterations, force evaluations = 6 51

MPI task timing breakdown:
Section |  min time  |  avg time  |  max time  |%varavg| %total
---------------------------------------------------------------
Pair    | 0.05106    | 0.05649    | 0.058479   |   0.9 | 38.60
Kspace  | 0.079667   | 0.082135   | 0.083953   |   0.4 | 56.12
Neigh   | 0          | 0          | 0          |   0.0 |  0.00
Comm    | 0.0051908  | 0.0069915  | 0.010823   |   1.8 |  4.78
Output  | 1.8835e-05 | 1.959e-05  | 2.1935e-05 |   0.0 |  0.01
Modify  | 0          | 0          | 0          |   0.0 |  0.00
Other   |            | 0.0007118  |            |       |  0.49

Nlocal:    84 ave 87 max 78 min
Histogram: 1 0 0 0 1 2 3 2 1 2
Nghost:    2602.75 ave 2629 max 2580 min
Histogram: 3 0 1 1 2 0 2 0 2 1
Neighs:    18631.9 ave 19358 max 17218 min
Histogram: 1 0 0 0 2 1 3 1 1 3

Total # of neighbors = 223583
Ave neighs/atom = 221.809
Neighbor list builds = 0
Dangerous builds = 0
CR_UPDATE- 23.300680	23.300680	23.300680	0.000000	0.000000	0.000000
For k = 5, applying strain of 1.00333
Changing box ...
  triclinic box = (0 0 0) to (23.3007 23.3007 23.3007) with tilt (0 0.077661 0)
WARNING: Resetting reneighboring criteria during minimization (../min.cpp:168)
Ewald initialization ...
  G vector (1/distance) = 0.365055
  estimated absolute RMS force accuracy = 1.94166e-05
  estimated relative force accuracy = 1.34841e-06
  KSpace vectors: actual max1d max3d = 2081 10 4630
                  kxmax kymax kzmax  = 10 10 10
Setting up cg style minimization ...
  Unit style: metal
Memory usage per processor = 4.56141 Mbytes
Step Temp E_pair E_mol TotEng Press 
     352           10   -18274.428            0   -18273.126   -9127.5023 
     363           10   -18274.451            0    -18273.15   -9113.6178 
Loop time of 0.180217 on 12 procs for 11 steps with 1008 atoms

99.7% CPU use with 12 MPI tasks x no OpenMP threads

Minimization stats:
  Stopping criterion = linesearch alpha is zero
  Energy initial, next-to-last, final = 
        -18274.4275104     -18274.4511614     -18274.4511614
  Force two-norm initial, final = 0.818363 0.119714
  Force max component initial, final = 0.0732301 0.0102431
  Final line search alpha, max atom move = 4.76837e-07 4.88431e-09
  Iterations, force evaluations = 11 63

MPI task timing breakdown:
Section |  min time  |  avg time  |  max time  |%varavg| %total
---------------------------------------------------------------
Pair    | 0.062833   | 0.069295   | 0.072181   |   1.0 | 38.45
Kspace  | 0.098982   | 0.1016     | 0.10374    |   0.5 | 56.38
Neigh   | 0          | 0          | 0          |   0.0 |  0.00
Comm    | 0.006181   | 0.0084095  | 0.013043   |   2.0 |  4.67
Output  | 0          | 0          | 0          |   0.0 |  0.00
Modify  | 0          | 0          | 0          |   0.0 |  0.00
Other   |            | 0.0009078  |            |       |  0.50

Nlocal:    84 ave 87 max 78 min
Histogram: 1 0 0 0 1 2 3 2 1 2
Nghost:    2602.75 ave 2629 max 2580 min
Histogram: 3 0 1 1 2 0 2 0 2 1
Neighs:    18632.1 ave 19357 max 17217 min
Histogram: 1 0 0 0 2 1 3 1 1 3

Total # of neighbors = 223585
Ave neighs/atom = 221.811
Neighbor list builds = 0
Dangerous builds = 0
CR_UPDATE- 23.300680	23.300680	23.300680	0.000000	0.000000	0.000000
For k = 6, applying strain of 1.005
Changing box ...
  triclinic box = (0 0 0) to (23.3007 23.3007 23.3007) with tilt (0 0.116503 0)
WARNING: Resetting reneighboring criteria during minimization (../min.cpp:168)
Ewald initialization ...
  G vector (1/distance) = 0.365055
  estimated absolute RMS force accuracy = 1.94166e-05
  estimated relative force accuracy = 1.34841e-06
  KSpace vectors: actual max1d max3d = 2079 10 4630
                  kxmax kymax kzmax  = 10 10 10
Setting up cg style minimization ...
  Unit style: metal
Memory usage per processor = 4.56141 Mbytes
Step Temp E_pair E_mol TotEng Press 
     363           10    -18274.37            0   -18273.068   -9141.3808 
     381           10   -18274.427            0   -18273.126   -9136.1649 
Loop time of 0.320059 on 12 procs for 18 steps with 1008 atoms

99.9% CPU use with 12 MPI tasks x no OpenMP threads

Minimization stats:
  Stopping criterion = linesearch alpha is zero
  Energy initial, next-to-last, final = 
        -18274.3696265     -18274.4273132     -18274.4273132
  Force two-norm initial, final = 1.22768 0.0988912
  Force max component initial, final = 0.109665 0.0105275
  Final line search alpha, max atom move = 9.53674e-07 1.00398e-08
  Iterations, force evaluations = 18 113

MPI task timing breakdown:
Section |  min time  |  avg time  |  max time  |%varavg| %total
---------------------------------------------------------------
Pair    | 0.11142    | 0.12371    | 0.12809    |   1.4 | 38.65
Kspace  | 0.17388    | 0.17963    | 0.18369    |   0.7 | 56.12
Neigh   | 0          | 0          | 0          |   0.0 |  0.00
Comm    | 0.011219   | 0.015138   | 0.023415   |   2.6 |  4.73
Output  | 0          | 0          | 0          |   0.0 |  0.00
Modify  | 0          | 0          | 0          |   0.0 |  0.00
Other   |            | 0.001586   |            |       |  0.50

Nlocal:    84 ave 87 max 78 min
Histogram: 1 0 0 0 1 2 3 2 1 2
Nghost:    2602.75 ave 2629 max 2580 min
Histogram: 3 0 1 1 2 0 2 0 2 1
[...]
  KSpace vectors: actual max1d max3d = 2081 10 4630
                  kxmax kymax kzmax  = 10 10 10
Setting up cg style minimization ...
  Unit style: metal
Memory usage per processor = 4.56141 Mbytes
Step Temp E_pair E_mol TotEng Press 
     842           10   -18274.316            0   -18273.014   -9366.3386 
     850           10    -18274.34            0   -18273.038   -9369.2039 
     856           10   -18274.343            0   -18273.041   -9363.1457 
Loop time of 0.19158 on 12 procs for 14 steps with 1008 atoms

99.8% CPU use with 12 MPI tasks x no OpenMP threads

Minimization stats:
  Stopping criterion = linesearch alpha is zero
  Energy initial, next-to-last, final = 
        -18274.3155956     -18274.3429133     -18274.3429133
  Force two-norm initial, final = 0.817614 0.0896671
  Force max component initial, final = 0.072346 0.00954885
  Final line search alpha, max atom move = 9.53674e-07 9.1065e-09
  Iterations, force evaluations = 14 67

MPI task timing breakdown:
Section |  min time  |  avg time  |  max time  |%varavg| %total
---------------------------------------------------------------
Pair    | 0.067136   | 0.074046   | 0.077015   |   1.0 | 38.65
Kspace  | 0.10591    | 0.10773    | 0.11038    |   0.4 | 56.23
Neigh   | 0          | 0          | 0          |   0.0 |  0.00
Comm    | 0.0064561  | 0.0087985  | 0.013783   |   2.0 |  4.59
Output  | 1.9073e-05 | 2.0047e-05 | 2.3127e-05 |   0.0 |  0.01
Modify  | 0          | 0          | 0          |   0.0 |  0.00
Other   |            | 0.0009806  |            |       |  0.51

Nlocal:    84 ave 87 max 78 min
Histogram: 1 0 0 0 1 1 4 2 2 1
Nghost:    2601.17 ave 2630 max 2571 min
Histogram: 1 1 2 0 2 1 1 2 1 1
Neighs:    18633.4 ave 19372 max 17212 min
Histogram: 1 0 0 1 0 2 2 2 2 2

Total # of neighbors = 223601
Ave neighs/atom = 221.826
Neighbor list builds = 0
Dangerous builds = 0
CR_UPDATE- 23.300680	23.300680	23.300680	0.000000	0.000000	0.000000
For k = 6, applying strain of 1.005
Changing box ...
  triclinic box = (0 0 0) to (23.3007 23.3007 23.3007) with tilt (0 0.116503 0)
WARNING: Resetting reneighboring criteria during minimization (../min.cpp:168)
Ewald initialization ...
  G vector (1/distance) = 0.365055
  estimated absolute RMS force accuracy = 1.94166e-05
  estimated relative force accuracy = 1.34841e-06
  KSpace vectors: actual max1d max3d = 2079 10 4630
                  kxmax kymax kzmax  = 10 10 10
Setting up cg style minimization ...
  Unit style: metal
Memory usage per processor = 4.56141 Mbytes
Step Temp E_pair E_mol TotEng Press 
     856           10   -18274.254            0   -18272.952    -9379.011 
     872           10   -18274.313            0   -18273.011   -9388.8472 
Loop time of 0.214768 on 12 procs for 16 steps with 1008 atoms

100.0% CPU use with 12 MPI tasks x no OpenMP threads

Minimization stats:
  Stopping criterion = linesearch alpha is zero
  Energy initial, next-to-last, final = 
        -18274.2537624     -18274.3129995     -18274.3129995
  Force two-norm initial, final = 1.22655 0.114458
  Force max component initial, final = 0.108336 0.00812747
  Final line search alpha, max atom move = 4.76837e-07 3.87548e-09
  Iterations, force evaluations = 16 75

MPI task timing breakdown:
Section |  min time  |  avg time  |  max time  |%varavg| %total
---------------------------------------------------------------
Pair    | 0.074069   | 0.082476   | 0.086747   |   1.2 | 38.40
Kspace  | 0.11875    | 0.12137    | 0.12456    |   0.5 | 56.51
Neigh   | 0          | 0          | 0          |   0.0 |  0.00
Comm    | 0.0071924  | 0.0098189  | 0.01544    |   2.1 |  4.57
Output  | 0          | 0          | 0          |   0.0 |  0.00
Modify  | 0          | 0          | 0          |   0.0 |  0.00
Other   |            | 0.001105   |            |       |  0.51

Nlocal:    84 ave 87 max 78 min
Histogram: 1 0 0 0 1 1 4 2 2 1
Nghost:    2601.17 ave 2630 max 2571 min
Histogram: 1 1 2 0 2 1 1 2 1 1
Neighs:    18636.2 ave 19370 max 17217 min
Histogram: 1 0 0 1 0 2 2 2 2 2

Total # of neighbors = 223634
Ave neighs/atom = 221.859
Neighbor list builds = 0
Dangerous builds = 0
CR_UPDATE- 23.300680	23.300680	23.300680	0.000000	0.000000	0.000000
For k = 0, applying strain of 0.995
Changing box ...
  triclinic box = (0 0 0) to (23.3007 23.3007 23.3007) with tilt (0 0 -0.116503)
WARNING: Resetting reneighboring criteria during minimization (../min.cpp:168)
Ewald initialization ...
  G vector (1/distance) = 0.365055
  estimated absolute RMS force accuracy = 1.94166e-05
  estimated relative force accuracy = 1.34841e-06
  KSpace vectors: actual max1d max3d = 2079 10 4630
                  kxmax kymax kzmax  = 10 10 10
Setting up cg style minimization ...
  Unit style: metal
Memory usage per processor = 4.56141 Mbytes
Step Temp E_pair E_mol TotEng Press 
     872           10   -18274.402            0     -18273.1   -9291.7674 
     884           10   -18274.461            0   -18273.159   -9200.7533 
Loop time of 0.186852 on 12 procs for 12 steps with 1008 atoms

100.0% CPU use with 12 MPI tasks x no OpenMP threads

Minimization stats:
  Stopping criterion = linesearch alpha is zero
  Energy initial, next-to-last, final = 
        -18274.4020485     -18274.4611323     -18274.4611323
  Force two-norm initial, final = 1.26084 0.152203
  Force max component initial, final = 0.131495 0.0112039
  Final line search alpha, max atom move = 4.76837e-07 5.34242e-09
  Iterations, force evaluations = 12 65

MPI task timing breakdown:
Section |  min time  |  avg time  |  max time  |%varavg| %total
---------------------------------------------------------------
Pair    | 0.064613   | 0.072061   | 0.075476   |   1.1 | 38.57
Kspace  | 0.10314    | 0.10533    | 0.10835    |   0.5 | 56.37
Neigh   | 0          | 0          | 0          |   0.0 |  0.00
Comm    | 0.0062075  | 0.0085318  | 0.013419   |   2.0 |  4.57
Output  | 0          | 0          | 0          |   0.0 |  0.00
Modify  | 0          | 0          | 0          |   0.0 |  0.00
Other   |            | 0.000931   |            |       |  0.50

Nlocal:    84 ave 87 max 78 min
Histogram: 1 0 0 0 1 1 4 2 2 1
Nghost:    2601.17 ave 2630 max 2571 min
Histogram: 1 1 2 0 2 1 1 2 1 1
Neighs:    18635.4 ave 19358 max 17225 min
Histogram: 1 0 0 1 0 2 2 2 2 2

Total # of neighbors = 223625
Ave neighs/atom = 221.85
Neighbor list builds = 0
Dangerous builds = 0
CR_UPDATE- 23.300680	23.300680	23.300680	0.000000	0.000000	0.000000
For k = 1, applying strain of 0.996667
Changing box ...
  triclinic box = (0 0 0) to (23.3007 23.3007 23.3007) with tilt (0 0 -0.077661)
WARNING: Resetting reneighboring criteria during minimization (../min.cpp:168)
Ewald initialization ...
  G vector (1/distance) = 0.365055
  estimated absolute RMS force accuracy = 1.94166e-05
  estimated relative force accuracy = 1.34841e-06
  KSpace vectors: actual max1d max3d = 2081 10 4630
                  kxmax kymax kzmax  = 10 10 10
Setting up cg style minimization ...
  Unit style: metal
Memory usage per processor = 4.56141 Mbytes
Step Temp E_pair E_mol TotEng Press 
     884           10   -18274.415            0   -18273.114   -9308.4474 
     895           10   -18274.443            0   -18273.141   -9242.9191 
Loop time of 0.179542 on 12 procs for 11 steps with 1008 atoms

99.8% CPU use with 12 MPI tasks x no OpenMP threads

Minimization stats:
  Stopping criterion = linesearch alpha is zero
  Energy initial, next-to-last, final = 
        -18274.4153867     -18274.4431261     -18274.4431261
  Force two-norm initial, final = 0.84058 0.114714
  Force max component initial, final = 0.0876636 0.00891541
  Final line search alpha, max atom move = 4.76837e-07 4.2512e-09
  Iterations, force evaluations = 11 63

MPI task timing breakdown:
Section |  min time  |  avg time  |  max time  |%varavg| %total
---------------------------------------------------------------
Pair    | 0.062665   | 0.069492   | 0.071609   |   1.0 | 38.71
Kspace  | 0.098091   | 0.10066    | 0.10278    |   0.4 | 56.07
Neigh   | 0          | 0          | 0          |   0.0 |  0.00
Comm    | 0.0062642  | 0.0084745  | 0.013241   |   1.9 |  4.72
Output  | 0          | 0          | 0          |   0.0 |  0.00
Modify  | 0          | 0          | 0          |   0.0 |  0.00
Other   |            | 0.0009129  |            |       |  0.51

Nlocal:    84 ave 87 max 78 min
Histogram: 1 0 0 0 1 1 4 2 2 1
Nghost:    2601.17 ave 2630 max 2571 min
Histogram: 1 1 2 0 2 1 1 2 1 1
Neighs:    18633.9 ave 19361 max 17223 min
Histogram: 1 0 0 1 0 2 2 2 2 2

Total # of neighbors = 223607
Ave neighs/atom = 221.832
Neighbor list builds = 0
Dangerous builds = 0
CR_UPDATE- 23.300680	23.300680	23.300680	0.000000	0.000000	0.000000
For k = 2, applying strain of 0.998333
Changing box ...
  triclinic box = (0 0 0) to (23.3007 23.3007 23.3007) with tilt (0 0 -0.038842)
WARNING: Resetting reneighboring criteria during minimization (../min.cpp:168)
Ewald initialization ...
  G vector (1/distance) = 0.365055
  estimated absolute RMS force accuracy = 1.94166e-05
  estimated relative force accuracy = 1.34841e-06
  KSpace vectors: actual max1d max3d = 2082 10 4630
                  kxmax kymax kzmax  = 10 10 10
Setting up cg style minimization ...
  Unit style: metal
Memory usage per processor = 4.56141 Mbytes
Step Temp E_pair E_mol TotEng Press 
     895           10     -18274.4            0   -18273.098   -9320.0415 
     900           10   -18274.406            0   -18273.105   -9292.5757 
     901           10   -18274.406            0   -18273.105   -9292.5757 
Loop time of 0.145475 on 12 procs for 6 steps with 1008 atoms

99.8% CPU use with 12 MPI tasks x no OpenMP threads

Minimization stats:
  Stopping criterion = linesearch alpha is zero
  Energy initial, next-to-last, final = 
        -18274.3999939     -18274.4063719     -18274.4063719
  Force two-norm initial, final = 0.420528 0.108301
  Force max component initial, final = 0.0438806 0.0102197
  Final line search alpha, max atom move = 9.53674e-07 9.74628e-09
  Iterations, force evaluations = 6 51

MPI task timing breakdown:
Section |  min time  |  avg time  |  max time  |%varavg| %total
---------------------------------------------------------------
Pair    | 0.050807   | 0.056514   | 0.058303   |   0.9 | 38.85
Kspace  | 0.079309   | 0.081573   | 0.083476   |   0.4 | 56.07
Neigh   | 0          | 0          | 0          |   0.0 |  0.00
Comm    | 0.0048511  | 0.0066742  | 0.010514   |   1.8 |  4.59
Output  | 1.9073e-05 | 1.9332e-05 | 2.2173e-05 |   0.0 |  0.01
Modify  | 0          | 0          | 0          |   0.0 |  0.00
Other   |            | 0.0006948  |            |       |  0.48

Nlocal:    84 ave 87 max 78 min
Histogram: 1 0 0 0 1 1 4 2 2 1
Nghost:    2601.17 ave 2630 max 2571 min
Histogram: 1 1 2 0 2 1 1 2 1 1
Neighs:    18633.9 ave 19364 max 17215 min
Histogram: 1 0 0 1 0 2 2 2 2 2

Total # of neighbors = 223607
Ave neighs/atom = 221.832
Neighbor list builds = 0
Dangerous builds = 0
CR_UPDATE- 23.300680	23.300680	23.300680	0.000000	0.000000	0.000000
For k = 3, applying strain of 1
Changing box ...
  triclinic box = (0 0 0) to (23.3007 23.3007 23.3007) with tilt (0 0 0)
WARNING: Resetting reneighboring criteria during minimization (../min.cpp:168)
Ewald initialization ...
  G vector (1/distance) = 0.365055
  estimated absolute RMS force accuracy = 1.94166e-05
  estimated relative force accuracy = 1.34841e-06
  KSpace vectors: actual max1d max3d = 2084 10 4630
                  kxmax kymax kzmax  = 10 10 10
Setting up cg style minimization ...
  Unit style: metal
Memory usage per processor = 4.56141 Mbytes
Step Temp E_pair E_mol TotEng Press 
     901           10    -18274.36            0   -18273.058   -9327.6858 
     902           10    -18274.36            0   -18273.058   -9327.6858 
Loop time of 0.0678798 on 12 procs for 1 steps with 1008 atoms

100.0% CPU use with 12 MPI tasks x no OpenMP threads

Minimization stats:
  Stopping criterion = linesearch alpha is zero
  Energy initial, next-to-last, final = 
        -18274.3600377     -18274.3600377     -18274.3600377
  Force two-norm initial, final = 0.00468944 0.00468944
  Force max component initial, final = 0.00033229 0.00033229
  Final line search alpha, max atom move = 0.000488281 1.62251e-07
  Iterations, force evaluations = 1 23

MPI task timing breakdown:
Section |  min time  |  avg time  |  max time  |%varavg| %total
---------------------------------------------------------------
Pair    | 0.023443   | 0.026059   | 0.027157   |   0.6 | 38.39
Kspace  | 0.037063   | 0.038274   | 0.03916    |   0.3 | 56.38
Neigh   | 0          | 0          | 0          |   0.0 |  0.00
Comm    | 0.0023749  | 0.0032201  | 0.0050101  |   1.2 |  4.74
Output  | 0          | 0          | 0          |   0.0 |  0.00
Modify  | 0          | 0          | 0          |   0.0 |  0.00
Other   |            | 0.0003264  |            |       |  0.48

Nlocal:    84 ave 87 max 78 min
Histogram: 1 0 0 0 1 1 4 2 2 1
Nghost:    2601.17 ave 2630 max 2571 min
Histogram: 1 1 2 0 2 1 1 2 1 1
Neighs:    18632.5 ave 19370 max 17213 min
Histogram: 1 0 0 1 0 2 2 2 2 2

Total # of neighbors = 223590
Ave neighs/atom = 221.815
Neighbor list builds = 0
Dangerous builds = 0
CR_UPDATE- 23.300680	23.300680	23.300680	0.000000	0.000000	0.000000
For k = 4, applying strain of 1.00167
Changing box ...
  triclinic box = (0 0 0) to (23.3007 23.3007 23.3007) with tilt (0 0 0.038842)
WARNING: Resetting reneighboring criteria during minimization (../min.cpp:168)
Ewald initialization ...
  G vector (1/distance) = 0.365055
  estimated absolute RMS force accuracy = 1.94166e-05
  estimated relative force accuracy = 1.34841e-06
  KSpace vectors: actual max1d max3d = 2082 10 4630
                  kxmax kymax kzmax  = 10 10 10
Setting up cg style minimization ...
  Unit style: metal
Memory usage per processor = 4.56141 Mbytes
Step Temp E_pair E_mol TotEng Press 
     902           10   -18274.289            0   -18272.988   -9329.6717 
     907           10   -18274.295            0   -18272.994   -9343.0241 
Loop time of 0.14573 on 12 procs for 5 steps with 1008 atoms

99.8% CPU use with 12 MPI tasks x no OpenMP threads

Minimization stats:
  Stopping criterion = linesearch alpha is zero
  Energy initial, next-to-last, final = 
        -18274.2894405     -18274.2954978     -18274.2954978
  Force two-norm initial, final = 0.420308 0.126907
  Force max component initial, final = 0.0436418 0.0135725
  Final line search alpha, max atom move = 4.76837e-07 6.47189e-09
  Iterations, force evaluations = 5 51

MPI task timing breakdown:
Section |  min time  |  avg time  |  max time  |%varavg| %total
---------------------------------------------------------------
Pair    | 0.050925   | 0.056352   | 0.058261   |   0.9 | 38.67
Kspace  | 0.080297   | 0.082001   | 0.084387   |   0.4 | 56.27
Neigh   | 0          | 0          | 0          |   0.0 |  0.00
Comm    | 0.004863   | 0.0066825  | 0.010578   |   1.8 |  4.59
Output  | 0          | 0          | 0          |   0.0 |  0.00
Modify  | 0          | 0          | 0          |   0.0 |  0.00
Other   |            | 0.0006945  |            |       |  0.48

Nlocal:    84 ave 87 max 78 min
Histogram: 1 0 0 0 1 1 4 2 2 1
Nghost:    2601.17 ave 2630 max 2571 min
Histogram: 1 1 2 0 2 1 1 2 1 1
Neighs:    18631.5 ave 19367 max 17211 min
Histogram: 1 0 0 1 0 2 2 2 2 2

Total # of neighbors = 223578
Ave neighs/atom = 221.804
Neighbor list builds = 0
Dangerous builds = 0
CR_UPDATE- 23.300680	23.300680	23.300680	0.000000	0.000000	0.000000
For k = 5, applying strain of 1.00333
Changing box ...
  triclinic box = (0 0 0) to (23.3007 23.3007 23.3007) with tilt (0 0 0.077661)
WARNING: Resetting reneighboring criteria during minimization (../min.cpp:168)
Ewald initialization ...
  G vector (1/distance) = 0.365055
  estimated absolute RMS force accuracy = 1.94166e-05
  estimated relative force accuracy = 1.34841e-06
  KSpace vectors: actual max1d max3d = 2081 10 4630
                  kxmax kymax kzmax  = 10 10 10
Setting up cg style minimization ...
  Unit style: metal
Memory usage per processor = 4.56141 Mbytes
Step Temp E_pair E_mol TotEng Press 
     907           10   -18274.196            0   -18272.894   -9328.0397 
     919           10   -18274.221            0   -18272.919   -9388.9007 
Loop time of 0.179752 on 12 procs for 12 steps with 1008 atoms

100.1% CPU use with 12 MPI tasks x no OpenMP threads

Minimization stats:
  Stopping criterion = linesearch alpha is zero
  Energy initial, next-to-last, final = 
        -18274.1956881     -18274.2205743     -18274.2205743
  Force two-norm initial, final = 0.840561 0.102388
  Force max component initial, final = 0.08733 0.00750692
  Final line search alpha, max atom move = 9.53674e-07 7.15915e-09
  Iterations, force evaluations = 12 63

MPI task timing breakdown:
Section |  min time  |  avg time  |  max time  |%varavg| %total
---------------------------------------------------------------
Pair    | 0.062703   | 0.069451   | 0.072088   |   1.0 | 38.64
Kspace  | 0.098576   | 0.10123    | 0.10406    |   0.5 | 56.31
Neigh   | 0          | 0          | 0          |   0.0 |  0.00
Comm    | 0.0059328  | 0.0081785  | 0.01289    |   1.9 |  4.55
Output  | 0          | 0          | 0          |   0.0 |  0.00
Modify  | 0          | 0          | 0          |   0.0 |  0.00
Other   |            | 0.0008971  |            |       |  0.50

Nlocal:    84 ave 87 max 78 min
Histogram: 1 0 0 0 1 1 4 2 2 1
Nghost:    2601.17 ave 2630 max 2571 min
Histogram: 1 1 2 0 2 1 1 2 1 1
Neighs:    18631.6 ave 19367 max 17203 min
Histogram: 1 0 0 1 0 2 2 2 2 2

Total # of neighbors = 223579
Ave neighs/atom = 221.805
Neighbor list builds = 0
Dangerous builds = 0
CR_UPDATE- 23.300680	23.300680	23.300680	0.000000	0.000000	0.000000
For k = 6, applying strain of 1.005
Changing box ...
  triclinic box = (0 0 0) to (23.3007 23.3007 23.3007) with tilt (0 0 0.116503)
WARNING: Resetting reneighboring criteria during minimization (../min.cpp:168)
Ewald initialization ...
  G vector (1/distance) = 0.365055
  estimated absolute RMS force accuracy = 1.94166e-05
  estimated relative force accuracy = 1.34841e-06
  KSpace vectors: actual max1d max3d = 2079 10 4630
                  kxmax kymax kzmax  = 10 10 10
Setting up cg style minimization ...
  Unit style: metal
Memory usage per processor = 4.56141 Mbytes
Step Temp E_pair E_mol TotEng Press 
     919           10   -18274.074            0   -18272.772   -9321.5701 
     936           10   -18274.134            0   -18272.833   -9402.8231 
Loop time of 0.411401 on 12 procs for 17 steps with 1008 atoms

99.9% CPU use with 12 MPI tasks x no OpenMP threads

Minimization stats:
  Stopping criterion = linesearch alpha is zero
  Energy initial, next-to-last, final = 
        -18274.0740068     -18274.1342337     -18274.1342337
  Force two-norm initial, final = 1.26111 0.0891489
  Force max component initial, final = 0.131013 0.00664651
  Final line search alpha, max atom move = 9.53674e-07 6.33861e-09
  Iterations, force evaluations = 17 149

MPI task timing breakdown:
Section |  min time  |  avg time  |  max time  |%varavg| %total
---------------------------------------------------------------
Pair    | 0.14329    | 0.15873    | 0.16442    |   1.6 | 38.58
Kspace  | 0.22365    | 0.23056    | 0.23801    |   0.8 | 56.04
Neigh   | 0          | 0          | 0          |   0.0 |  0.00
Comm    | 0.014392   | 0.020138   | 0.031551   |   3.0 |  4.90
Output  | 0          | 0          | 0          |   0.0 |  0.00
Modify  | 0          | 0          | 0          |   0.0 |  0.00
Other   |            | 0.001973   |            |       |  0.48

Nlocal:    84 ave 87 max 78 min
Histogram: 1 0 0 0 1 1 4 2 2 1
Nghost:    2601.17 ave 2630 max 2571 min
Histogram: 1 1 2 0 2 1 1 2 1 1
Neighs:    18632.8 ave 19363 max 17212 min
Histogram: 1 0 0 1 0 2 2 2 2 2

Total # of neighbors = 223593
Ave neighs/atom = 221.818
Neighbor list builds = 0
Dangerous builds = 0
Total wall time: 0:00:16
Done.
