LAMMPS (7 Dec 2015)
# Tantala heating to find melting temp. and glass transition temp.
# Intervals of 400 K (starting at 0 K) to be merged with the date from the even directory (also has intervals of 400 K starting at 200 K)
# Including rdf compute and initial velocity seed
# I've written a loop that makes melting/cooling simulation codes less tedious (In test directory input file)

# Initialization

units		metal
atom_style	charge
dimension	3
boundary	p p p

# Optional

neighbor	1.0 nsq
neigh_modify	every 1 delay 1 check yes

# Defining atomic system (896 atoms)

read_data	min1.dat
  triclinic box = (0 0 0) to (23.3007 23.3007 23.3007) with tilt (0 0 0)
  2 by 2 by 3 MPI processor grid
  reading atoms ...
  1008 atoms

# Potential

kspace_style	ewald 1.0e-6
#For low-temperature simulations, comment out the following line
#pair_style	hybrid/overlay lj246/cut 10 buck/coul/long 10 morse 10
#For low-temperature simulations, un-comment the following line
pair_style      hybrid/overlay buck/coul/long 10 morse 10

pair_coeff      1 2 buck/coul/long 100067.01 0.1319 6.05
pair_coeff      2 2 buck/coul/long 1388.773 0.3623188 175.0000
pair_coeff      1 1 buck/coul/long 0.00000000 1.0000000 0.000000
pair_coeff	2 3 buck/coul/long 17243.00 0.2265 128.35
pair_coeff      1 3 buck/coul/long 0.00000000 1.0000000 0.000000
pair_coeff      3 3 buck/coul/long 0.00000000 1.0000000 0.000000
pair_coeff 	1 2 morse 	   0.3789 1.6254 2.5445
#Remove these lines if running low-temperature simulation
#pair_coeff      1 2 lj246/cut	   0.01 0.51
#pair_coeff	2 2 lj246/cut 	   0.00035653 1.9000

# MD parameters

#1 fs timestep
timestep 0.001
thermo		50

fix		1 all nvt temp 10 10 0.1
velocity	all create 10 26684

load_tls min1.dump 1 0
  triclinic box = (0 0 0) to (23.3007 23.3007 23.3007) with tilt (0 0 0)
  1008 atoms before read
  1008 atoms in snapshot
  0 atoms purged
  1008 atoms replaced
  0 atoms trimmed
  0 atoms added
  1008 atoms after read
load_tls min2.dump 2 0
  triclinic box = (0 0 0) to (23.3007 23.3007 23.3007) with tilt (0 0 0)
  1008 atoms before read
  1008 atoms in snapshot
  0 atoms purged
  1008 atoms replaced
  0 atoms trimmed
  0 atoms added
  1008 atoms after read
couple_elastic 0.005 linear
  triclinic box = (0.0582517 0 0) to (23.2424 23.3007 23.3007) with tilt (0 0 0)
WARNING: Resetting reneighboring criteria during minimization (../min.cpp:168)
Ewald initialization ...
  G vector (1/distance) = 0.365089
  estimated absolute RMS force accuracy = 1.92191e-05
  estimated relative force accuracy = 1.33469e-06
  KSpace vectors: actual max1d max3d = 2088 10 4630
                  kxmax kymax kzmax  = 10 10 10
Neighbor list info ...
  2 neighbor list requests
  update every 1 steps, delay 0 steps, check yes
  max neighbors/atom: 2000, page size: 100000
  master list distance cutoff = 11
  ghost atom cutoff = 11
Memory usage per processor = 4.56136 Mbytes
Step Temp E_pair E_mol TotEng Press 
       0           10   -18273.352            0    -18272.05     4760.424 
      14           10   -18273.503            0   -18272.201    1252.7114 
Loop time of 0.222512 on 12 procs for 14 steps with 1008 atoms

99.5% CPU use with 12 MPI tasks x no OpenMP threads

Minimization stats:
  Stopping criterion = linesearch alpha is zero
  Energy initial, next-to-last, final = 
        -18273.3520136     -18273.5029251     -18273.5029251
  Force two-norm initial, final = 1.84556 0.198642
  Force max component initial, final = 0.165968 0.0214808
  Final line search alpha, max atom move = 2.38419e-07 5.12141e-09
  Iterations, force evaluations = 14 71

MPI task timing breakdown:
Section |  min time  |  avg time  |  max time  |%varavg| %total
---------------------------------------------------------------
Pair    | 0.072256   | 0.08026    | 0.084976   |   1.3 | 36.07
Kspace  | 0.11967    | 0.12352    | 0.12704    |   0.6 | 55.51
Neigh   | 0          | 0          | 0          |   0.0 |  0.00
Comm    | 0.011512   | 0.015993   | 0.021257   |   1.8 |  7.19
Output  | 0          | 0          | 0          |   0.0 |  0.00
Modify  | 0          | 0          | 0          |   0.0 |  0.00
Other   |            | 0.00274    |            |       |  1.23

Nlocal:    84 ave 86 max 79 min
Histogram: 1 0 1 0 0 2 0 1 4 3
Nghost:    2619.67 ave 2636 max 2594 min
Histogram: 2 0 0 2 0 1 1 0 3 3
Neighs:    18725.6 ave 19278 max 17501 min
Histogram: 1 0 0 1 1 1 2 0 3 3

Total # of neighbors = 224707
Ave neighs/atom = 222.924
Neighbor list builds = 0
Dangerous builds = 0
  triclinic box = (0.0388306 0 0) to (23.2618 23.3007 23.3007) with tilt (0 0 0)
WARNING: Resetting reneighboring criteria during minimization (../min.cpp:168)
Ewald initialization ...
  G vector (1/distance) = 0.365078
  estimated absolute RMS force accuracy = 1.92793e-05
  estimated relative force accuracy = 1.33888e-06
  KSpace vectors: actual max1d max3d = 2084 10 4630
                  kxmax kymax kzmax  = 10 10 10
Memory usage per processor = 4.56136 Mbytes
Step Temp E_pair E_mol TotEng Press 
      14           10   -18273.522            0    -18272.22    1153.1493 
      31           10   -18273.587            0   -18272.285   -1209.8175 
Loop time of 0.227726 on 12 procs for 17 steps with 1008 atoms

100.0% CPU use with 12 MPI tasks x no OpenMP threads

Minimization stats:
  Stopping criterion = linesearch alpha is zero
  Energy initial, next-to-last, final = 
        -18273.5219449     -18273.5868175     -18273.5868175
  Force two-norm initial, final = 1.22243 0.107408
  Force max component initial, final = 0.109602 0.0096242
  Final line search alpha, max atom move = 9.53674e-07 9.17836e-09
  Iterations, force evaluations = 17 73

MPI task timing breakdown:
Section |  min time  |  avg time  |  max time  |%varavg| %total
---------------------------------------------------------------
Pair    | 0.073473   | 0.082426   | 0.08991    |   1.5 | 36.20
Kspace  | 0.12072    | 0.12684    | 0.13079    |   0.8 | 55.70
Neigh   | 0          | 0          | 0          |   0.0 |  0.00
Comm    | 0.011356   | 0.015937   | 0.02119    |   1.8 |  7.00
Output  | 0          | 0          | 0          |   0.0 |  0.00
Modify  | 0          | 0          | 0          |   0.0 |  0.00
Other   |            | 0.002522   |            |       |  1.11

Nlocal:    84 ave 86 max 79 min
Histogram: 1 0 1 0 0 2 0 1 4 3
Nghost:    2619.67 ave 2636 max 2594 min
Histogram: 2 0 0 2 0 1 1 0 3 3
Neighs:    18693.8 ave 19235 max 17477 min
Histogram: 1 0 0 1 1 1 2 0 3 3

Total # of neighbors = 224326
Ave neighs/atom = 222.546
Neighbor list builds = 0
Dangerous builds = 0
  triclinic box = (0.0194211 0 0) to (23.2813 23.3007 23.3007) with tilt (0 0 0)
WARNING: Resetting reneighboring criteria during minimization (../min.cpp:168)
Ewald initialization ...
  G vector (1/distance) = 0.365066
  estimated absolute RMS force accuracy = 1.9345e-05
  estimated relative force accuracy = 1.34344e-06
  KSpace vectors: actual max1d max3d = 2084 10 4630
                  kxmax kymax kzmax  = 10 10 10
Memory usage per processor = 4.56136 Mbytes
Step Temp E_pair E_mol TotEng Press 
      31           10   -18273.604            0   -18272.302   -2413.3929 
      42           10    -18273.62            0   -18272.318   -3528.0122 
Loop time of 0.190398 on 12 procs for 11 steps with 1008 atoms

99.8% CPU use with 12 MPI tasks x no OpenMP threads

Minimization stats:
  Stopping criterion = linesearch alpha is zero
  Energy initial, next-to-last, final = 
        -18273.6039303     -18273.6195209     -18273.6195209
  Force two-norm initial, final = 0.607073 0.0880601
  Force max component initial, final = 0.0542722 0.0110053
  Final line search alpha, max atom move = 9.53674e-07 1.04955e-08
  Iterations, force evaluations = 11 61

MPI task timing breakdown:
Section |  min time  |  avg time  |  max time  |%varavg| %total
---------------------------------------------------------------
Pair    | 0.06213    | 0.068602   | 0.073905   |   1.1 | 36.03
Kspace  | 0.09951    | 0.10449    | 0.11077    |   0.8 | 54.88
Neigh   | 0          | 0          | 0          |   0.0 |  0.00
Comm    | 0.011982   | 0.01529    | 0.019738   |   1.6 |  8.03
Output  | 0          | 0          | 0          |   0.0 |  0.00
Modify  | 0          | 0          | 0          |   0.0 |  0.00
Other   |            | 0.002019   |            |       |  1.06

Nlocal:    84 ave 86 max 79 min
Histogram: 1 0 1 0 0 2 0 1 4 3
Nghost:    2614 ave 2634 max 2587 min
Histogram: 2 0 2 1 1 0 0 1 1 4
Neighs:    18660.5 ave 19194 max 17441 min
Histogram: 1 0 0 1 1 1 1 1 3 3

Total # of neighbors = 223926
Ave neighs/atom = 222.149
Neighbor list builds = 0
Dangerous builds = 0
  triclinic box = (0 0 0) to (23.3007 23.3007 23.3007) with tilt (0 0 0)
WARNING: Resetting reneighboring criteria during minimization (../min.cpp:168)
Ewald initialization ...
  G vector (1/distance) = 0.365055
  estimated absolute RMS force accuracy = 1.94166e-05
  estimated relative force accuracy = 1.34841e-06
  KSpace vectors: actual max1d max3d = 2084 10 4630
                  kxmax kymax kzmax  = 10 10 10
Memory usage per processor = 4.56136 Mbytes
Step Temp E_pair E_mol TotEng Press 
      42           10   -18273.601            0     -18272.3    -5944.226 
      44           10   -18273.601            0     -18272.3   -5941.7916 
Loop time of 0.0728858 on 12 procs for 2 steps with 1008 atoms

100.1% CPU use with 12 MPI tasks x no OpenMP threads

Minimization stats:
  Stopping criterion = linesearch alpha is zero
  Energy initial, next-to-last, final = 
         -18273.601313     -18273.6013225     -18273.6013225
  Force two-norm initial, final = 0.00482554 0.00323379
  Force max component initial, final = 0.000346992 0.00039228
  Final line search alpha, max atom move = 0.000976562 3.83085e-07
  Iterations, force evaluations = 2 23

MPI task timing breakdown:
Section |  min time  |  avg time  |  max time  |%varavg| %total
---------------------------------------------------------------
Pair    | 0.023995   | 0.026695   | 0.028849   |   0.7 | 36.63
Kspace  | 0.038707   | 0.040731   | 0.041846   |   0.4 | 55.88
Neigh   | 0          | 0          | 0          |   0.0 |  0.00
Comm    | 0.003406   | 0.0047764  | 0.0064769  |   1.0 |  6.55
Output  | 0          | 0          | 0          |   0.0 |  0.00
Modify  | 0          | 0          | 0          |   0.0 |  0.00
Other   |            | 0.0006831  |            |       |  0.94

Nlocal:    84 ave 86 max 79 min
Histogram: 1 0 1 0 0 2 0 1 4 3
Nghost:    2611.5 ave 2632 max 2585 min
Histogram: 2 0 2 1 0 1 0 1 3 2
Neighs:    18631 ave 19164 max 17412 min
Histogram: 1 0 0 1 1 1 2 0 3 3

Total # of neighbors = 223572
Ave neighs/atom = 221.798
Neighbor list builds = 0
Dangerous builds = 0
  triclinic box = (-0.0194211 0 0) to (23.3201 23.3007 23.3007) with tilt (0 0 0)
WARNING: Resetting reneighboring criteria during minimization (../min.cpp:168)
Ewald initialization ...
  G vector (1/distance) = 0.365044
  estimated absolute RMS force accuracy = 1.94944e-05
  estimated relative force accuracy = 1.35381e-06
  KSpace vectors: actual max1d max3d = 2084 10 4630
                  kxmax kymax kzmax  = 10 10 10
Memory usage per processor = 4.56136 Mbytes
Step Temp E_pair E_mol TotEng Press 
      44           10   -18273.516            0   -18272.214   -9437.8918 
      50           10   -18273.529            0   -18272.228   -8413.2076 
      57           10   -18273.532            0    -18272.23   -8296.7544 
Loop time of 0.195676 on 12 procs for 13 steps with 1008 atoms

99.9% CPU use with 12 MPI tasks x no OpenMP threads

Minimization stats:
  Stopping criterion = linesearch alpha is zero
  Energy initial, next-to-last, final = 
        -18273.5158791     -18273.5320087     -18273.5320087
  Force two-norm initial, final = 0.602709 0.070445
  Force max component initial, final = 0.0535099 0.00945208
  Final line search alpha, max atom move = 1.90735e-06 1.80284e-08
  Iterations, force evaluations = 13 63

MPI task timing breakdown:
Section |  min time  |  avg time  |  max time  |%varavg| %total
---------------------------------------------------------------
Pair    | 0.063025   | 0.071286   | 0.076754   |   1.3 | 36.43
Kspace  | 0.1039     | 0.10901    | 0.11235    |   0.7 | 55.71
Neigh   | 0          | 0          | 0          |   0.0 |  0.00
Comm    | 0.0096908  | 0.013214   | 0.018166   |   1.6 |  6.75
Output  | 3.6955e-05 | 3.8822e-05 | 4.5061e-05 |   0.0 |  0.02
Modify  | 0          | 0          | 0          |   0.0 |  0.00
Other   |            | 0.00213    |            |       |  1.09

Nlocal:    84 ave 86 max 79 min
Histogram: 1 0 1 0 0 2 0 1 4 3
Nghost:    2608.75 ave 2628 max 2583 min
Histogram: 2 0 1 1 1 1 0 0 4 2
Neighs:    18602.5 ave 19124 max 17391 min
Histogram: 1 0 0 1 1 1 1 1 3 3

Total # of neighbors = 223230
Ave neighs/atom = 221.458
Neighbor list builds = 0
Dangerous builds = 0
  triclinic box = (-0.0388306 0 0) to (23.3395 23.3007 23.3007) with tilt (0 0 0)
WARNING: Resetting reneighboring criteria during minimization (../min.cpp:168)
Ewald initialization ...
  G vector (1/distance) = 0.365032
  estimated absolute RMS force accuracy = 1.95788e-05
  estimated relative force accuracy = 1.35968e-06
  KSpace vectors: actual max1d max3d = 2084 10 4630
                  kxmax kymax kzmax  = 10 10 10
Memory usage per processor = 4.56136 Mbytes
Step Temp E_pair E_mol TotEng Press 
      57           10    -18273.35            0   -18272.048   -12892.951 
      76           10   -18273.414            0   -18272.112   -10576.097 
Loop time of 0.240619 on 12 procs for 19 steps with 1008 atoms

99.8% CPU use with 12 MPI tasks x no OpenMP threads

Minimization stats:
  Stopping criterion = linesearch alpha is zero
  Energy initial, next-to-last, final = 
        -18273.3498472     -18273.4137457     -18273.4137457
  Force two-norm initial, final = 1.19667 0.0885436
  Force max component initial, final = 0.105915 0.0103293
  Final line search alpha, max atom move = 9.53674e-07 9.85076e-09
  Iterations, force evaluations = 19 79

MPI task timing breakdown:
Section |  min time  |  avg time  |  max time  |%varavg| %total
---------------------------------------------------------------
Pair    | 0.078724   | 0.088151   | 0.095073   |   1.4 | 36.64
Kspace  | 0.12839    | 0.1344     | 0.13907    |   0.8 | 55.86
Neigh   | 0          | 0          | 0          |   0.0 |  0.00
Comm    | 0.011011   | 0.015683   | 0.021555   |   1.9 |  6.52
Output  | 0          | 0          | 0          |   0.0 |  0.00
Modify  | 0          | 0          | 0          |   0.0 |  0.00
Other   |            | 0.002384   |            |       |  0.99

Nlocal:    84 ave 86 max 79 min
Histogram: 1 0 1 0 0 2 0 1 4 3
Nghost:    2606.33 ave 2625 max 2579 min
Histogram: 2 0 0 2 1 0 1 1 3 2
Neighs:    18571.1 ave 19094 max 17363 min
Histogram: 1 0 0 1 1 1 2 0 3 3

Total # of neighbors = 222853
Ave neighs/atom = 221.084
Neighbor list builds = 0
Dangerous builds = 0
  triclinic box = (-0.0582517 0 0) to (23.3589 23.3007 23.3007) with tilt (0 0 0)
WARNING: Resetting reneighboring criteria during minimization (../min.cpp:168)
Ewald initialization ...
  G vector (1/distance) = 0.365021
  estimated absolute RMS force accuracy = 1.96704e-05
  estimated relative force accuracy = 1.36604e-06
  KSpace vectors: actual max1d max3d = 2084 10 4630
                  kxmax kymax kzmax  = 10 10 10
Memory usage per processor = 4.56136 Mbytes
Step Temp E_pair E_mol TotEng Press 
      76           10   -18273.098            0   -18271.797   -16312.593 
      97           10   -18273.245            0   -18271.944   -12852.371 
Loop time of 0.257801 on 12 procs for 21 steps with 1008 atoms

99.9% CPU use with 12 MPI tasks x no OpenMP threads

Minimization stats:
  Stopping criterion = linesearch alpha is zero
  Energy initial, next-to-last, final = 
        -18273.0984786     -18273.2452373     -18273.2452373
  Force two-norm initial, final = 1.78406 0.114903
  Force max component initial, final = 0.157405 0.0232036
  Final line search alpha, max atom move = 4.76837e-07 1.10643e-08
  Iterations, force evaluations = 21 83

MPI task timing breakdown:
Section |  min time  |  avg time  |  max time  |%varavg| %total
---------------------------------------------------------------
Pair    | 0.08296    | 0.092704   | 0.10165    |   1.5 | 35.96
Kspace  | 0.13728    | 0.14441    | 0.1489     |   0.8 | 56.02
Neigh   | 0          | 0          | 0          |   0.0 |  0.00
Comm    | 0.012756   | 0.017887   | 0.023963   |   2.0 |  6.94
Output  | 0          | 0          | 0          |   0.0 |  0.00
Modify  | 0          | 0          | 0          |   0.0 |  0.00
Other   |            | 0.002796   |            |       |  1.08

Nlocal:    84 ave 86 max 79 min
Histogram: 1 0 1 0 0 2 0 1 4 3
Nghost:    2605.33 ave 2624 max 2579 min
Histogram: 2 0 0 2 1 0 1 1 3 2
Neighs:    18541.6 ave 19064 max 17345 min
Histogram: 1 0 0 1 1 1 2 0 3 3

Total # of neighbors = 222499
Ave neighs/atom = 220.733
Neighbor list builds = 0
Dangerous builds = 0
  triclinic box = (0 0.0582517 0) to (23.3007 23.2424 23.3007) with tilt (0 0 0)
WARNING: Resetting reneighboring criteria during minimization (../min.cpp:168)
Ewald initialization ...
  G vector (1/distance) = 0.365089
  estimated absolute RMS force accuracy = 1.92191e-05
  estimated relative force accuracy = 1.33469e-06
  KSpace vectors: actual max1d max3d = 2088 10 4630
                  kxmax kymax kzmax  = 10 10 10
Memory usage per processor = 4.56136 Mbytes
Step Temp E_pair E_mol TotEng Press 
      97           10   -18273.652            0    -18272.35    4811.4051 
     100           10   -18273.751            0   -18272.449    2547.3841 
     113           10   -18273.794            0   -18272.493    1390.3733 
Loop time of 0.233615 on 12 procs for 16 steps with 1008 atoms

99.8% CPU use with 12 MPI tasks x no OpenMP threads

Minimization stats:
  Stopping criterion = linesearch alpha is zero
  Energy initial, next-to-last, final = 
        -18273.6518307      -18273.794251      -18273.794251
  Force two-norm initial, final = 1.76247 0.191124
  Force max component initial, final = 0.166874 0.017176
  Final line search alpha, max atom move = 2.38419e-07 4.09508e-09
  Iterations, force evaluations = 16 75

MPI task timing breakdown:
Section |  min time  |  avg time  |  max time  |%varavg| %total
---------------------------------------------------------------
Pair    | 0.076125   | 0.085044   | 0.091825   |   1.3 | 36.40
Kspace  | 0.12455    | 0.13009    | 0.13426    |   0.7 | 55.68
Neigh   | 0          | 0          | 0          |   0.0 |  0.00
Comm    | 0.011514   | 0.016046   | 0.021469   |   1.8 |  6.87
Output  | 5.7936e-05 | 6.038e-05  | 6.6996e-05 |   0.0 |  0.03
Modify  | 0          | 0          | 0          |   0.0 |  0.00
Other   |            | 0.002376   |            |       |  1.02

Nlocal:    84 ave 86 max 79 min
Histogram: 1 0 1 0 0 2 0 1 4 3
Nghost:    2626.25 ave 2645 max 2603 min
Histogram: 2 1 1 1 1 0 0 1 0 5
Neighs:    18726.7 ave 19280 max 17507 min
Histogram: 1 0 0 1 1 1 2 0 3 3

Total # of neighbors = 224720
Ave neighs/atom = 222.937
Neighbor list builds = 0
Dangerous builds = 0
  triclinic box = (0 0.0388306 0) to (23.3007 23.2618 23.3007) with tilt (0 0 0)
WARNING: Resetting reneighboring criteria during minimization (../min.cpp:168)
Ewald initialization ...
  G vector (1/distance) = 0.365078
  estimated absolute RMS force accuracy = 1.92793e-05
  estimated relative force accuracy = 1.33888e-06
  KSpace vectors: actual max1d max3d = 2084 10 4630
                  kxmax kymax kzmax  = 10 10 10
Memory usage per processor = 4.56136 Mbytes
Step Temp E_pair E_mol TotEng Press 
     113           10   -18273.721            0   -18272.419    1186.9326 
     133           10   -18273.783            0   -18272.482   -1113.5984 
Loop time of 0.242577 on 12 procs for 20 steps with 1008 atoms

100.0% CPU use with 12 MPI tasks x no OpenMP threads

Minimization stats:
  Stopping criterion = linesearch alpha is zero
  Energy initial, next-to-last, final = 
        -18273.7209597     -18273.7832337     -18273.7832337
  Force two-norm initial, final = 1.16765 0.0962474
  Force max component initial, final = 0.110142 0.00989069
  Final line search alpha, max atom move = 9.53674e-07 9.43249e-09
  Iterations, force evaluations = 20 79

MPI task timing breakdown:
Section |  min time  |  avg time  |  max time  |%varavg| %total
---------------------------------------------------------------
Pair    | 0.079332   | 0.089011   | 0.095295   |   1.3 | 36.69
Kspace  | 0.12901    | 0.13494    | 0.13925    |   0.7 | 55.63
Neigh   | 0          | 0          | 0          |   0.0 |  0.00
Comm    | 0.011574   | 0.01613    | 0.022048   |   1.8 |  6.65
Output  | 0          | 0          | 0          |   0.0 |  0.00
Modify  | 0          | 0          | 0          |   0.0 |  0.00
Other   |            | 0.002493   |            |       |  1.03

Nlocal:    84 ave 86 max 79 min
Histogram: 1 0 1 0 0 2 0 1 4 3
Nghost:    2622.25 ave 2643 max 2596 min
Histogram: 2 0 2 1 0 1 1 0 1 4
Neighs:    18693.5 ave 19243 max 17472 min
Histogram: 1 0 0 1 1 1 2 0 3 3

Total # of neighbors = 224322
Ave neighs/atom = 222.542
Neighbor list builds = 0
Dangerous builds = 0
  triclinic box = (0 0.0194211 0) to (23.3007 23.2813 23.3007) with tilt (0 0 0)
WARNING: Resetting reneighboring criteria during minimization (../min.cpp:168)
Ewald initialization ...
  G vector (1/distance) = 0.365066
  estimated absolute RMS force accuracy = 1.9345e-05
  estimated relative force accuracy = 1.34344e-06
  KSpace vectors: actual max1d max3d = 2084 10 4630
                  kxmax kymax kzmax  = 10 10 10
Memory usage per processor = 4.56136 Mbytes
Step Temp E_pair E_mol TotEng Press 
     133           10   -18273.704            0   -18272.402   -2396.8285 
     147           10   -18273.721            0   -18272.419   -3501.2882 
Loop time of 0.317639 on 12 procs for 14 steps with 1008 atoms

99.9% CPU use with 12 MPI tasks x no OpenMP threads

Minimization stats:
  Stopping criterion = linesearch alpha is zero
  Energy initial, next-to-last, final = 
        -18273.7039931     -18273.7208298     -18273.7208298
  Force two-norm initial, final = 0.580026 0.0633004
  Force max component initial, final = 0.0545288 0.00466167
  Final line search alpha, max atom move = 1.90735e-06 8.89143e-09
  Iterations, force evaluations = 14 103

MPI task timing breakdown:
Section |  min time  |  avg time  |  max time  |%varavg| %total
---------------------------------------------------------------
Pair    | 0.10319    | 0.11591    | 0.12581    |   1.6 | 36.49
Kspace  | 0.16918    | 0.17713    | 0.18265    |   0.9 | 55.76
Neigh   | 0          | 0          | 0          |   0.0 |  0.00
Comm    | 0.015194   | 0.02156    | 0.029408   |   2.2 |  6.79
Output  | 0          | 0          | 0          |   0.0 |  0.00
Modify  | 0          | 0          | 0          |   0.0 |  0.00
Other   |            | 0.003037   |            |       |  0.96

Nlocal:    84 ave 86 max 79 min
Histogram: 1 0 1 0 0 2 0 1 4 3
Nghost:    2617.75 ave 2636 max 2592 min
Histogram: 2 0 2 1 0 1 0 1 1 4
Neighs:    18661.8 ave 19207 max 17440 min
Histogram: 1 0 0 1 1 1 2 0 3 3

Total # of neighbors = 223942
Ave neighs/atom = 222.165
Neighbor list builds = 0
Dangerous builds = 0
  triclinic box = (0 0 0) to (23.3007 23.3007 23.3007) with tilt (0 0 0)
WARNING: Resetting reneighboring criteria during minimization (../min.cpp:168)
Ewald initialization ...
  G vector (1/distance) = 0.365055
  estimated absolute RMS force accuracy = 1.94166e-05
  estimated relative force accuracy = 1.34841e-06
  KSpace vectors: actual max1d max3d = 2084 10 4630
                  kxmax kymax kzmax  = 10 10 10
Memory usage per processor = 4.56136 Mbytes
Step Temp E_pair E_mol TotEng Press 
     147           10   -18273.601            0     -18272.3    -5944.226 
     149           10   -18273.601            0     -18272.3   -5941.7916 
Loop time of 0.0726174 on 12 procs for 2 steps with 1008 atoms

99.5% CPU use with 12 MPI tasks x no OpenMP threads

Minimization stats:
  Stopping criterion = linesearch alpha is zero
  Energy initial, next-to-last, final = 
         -18273.601313     -18273.6013225     -18273.6013225
  Force two-norm initial, final = 0.00482554 0.00323379
  Force max component initial, final = 0.000346992 0.00039228
  Final line search alpha, max atom move = 0.000976562 3.83085e-07
  Iterations, force evaluations = 2 23

MPI task timing breakdown:
Section |  min time  |  avg time  |  max time  |%varavg| %total
---------------------------------------------------------------
Pair    | 0.023687   | 0.026423   | 0.028657   |   0.8 | 36.39
Kspace  | 0.039021   | 0.040557   | 0.041824   |   0.4 | 55.85
Neigh   | 0          | 0          | 0          |   0.0 |  0.00
Comm    | 0.0036407  | 0.0049763  | 0.0068018  |   1.1 |  6.85
Output  | 0          | 0          | 0          |   0.0 |  0.00
Modify  | 0          | 0          | 0          |   0.0 |  0.00
Other   |            | 0.0006614  |            |       |  0.91

Nlocal:    84 ave 86 max 79 min
Histogram: 1 0 1 0 0 2 0 1 4 3
Nghost:    2611.5 ave 2632 max 2585 min
Histogram: 2 0 2 1 0 1 0 1 3 2
Neighs:    18631 ave 19164 max 17412 min
Histogram: 1 0 0 1 1 1 2 0 3 3

Total # of neighbors = 223572
Ave neighs/atom = 221.798
Neighbor list builds = 0
Dangerous builds = 0
  triclinic box = (0 -0.0194211 0) to (23.3007 23.3201 23.3007) with tilt (0 0 0)
WARNING: Resetting reneighboring criteria during minimization (../min.cpp:168)
Ewald initialization ...
  G vector (1/distance) = 0.365044
  estimated absolute RMS force accuracy = 1.94944e-05
  estimated relative force accuracy = 1.35381e-06
  KSpace vectors: actual max1d max3d = 2084 10 4630
                  kxmax kymax kzmax  = 10 10 10
Memory usage per processor = 4.56136 Mbytes
Step Temp E_pair E_mol TotEng Press 
     149           10   -18273.417            0   -18272.116   -9454.5064 
     150           10   -18273.423            0   -18272.121   -9115.9815 
     158           10   -18273.433            0   -18272.131   -8399.3317 
Loop time of 0.1832 on 12 procs for 9 steps with 1008 atoms

99.9% CPU use with 12 MPI tasks x no OpenMP threads

Minimization stats:
  Stopping criterion = linesearch alpha is zero
  Energy initial, next-to-last, final = 
        -18273.4171919     -18273.4331442     -18273.4331442
  Force two-norm initial, final = 0.576561 0.121211
  Force max component initial, final = 0.0535871 0.0249447
  Final line search alpha, max atom move = 4.76837e-07 1.18945e-08
  Iterations, force evaluations = 9 59

MPI task timing breakdown:
Section |  min time  |  avg time  |  max time  |%varavg| %total
---------------------------------------------------------------
Pair    | 0.059365   | 0.066272   | 0.071995   |   1.3 | 36.17
Kspace  | 0.098274   | 0.10256    | 0.10562    |   0.6 | 55.98
Neigh   | 0          | 0          | 0          |   0.0 |  0.00
Comm    | 0.0089426  | 0.012566   | 0.016991   |   1.7 |  6.86
Output  | 2.8133e-05 | 2.9186e-05 | 3.1948e-05 |   0.0 |  0.02
Modify  | 0          | 0          | 0          |   0.0 |  0.00
Other   |            | 0.00177    |            |       |  0.97

Nlocal:    84 ave 86 max 79 min
Histogram: 1 0 1 0 0 2 0 1 4 3
Nghost:    2607.5 ave 2630 max 2583 min
Histogram: 2 1 0 3 0 0 0 3 2 1
Neighs:    18600.2 ave 19129 max 17385 min
Histogram: 1 0 0 1 1 1 2 0 3 3

Total # of neighbors = 223202
Ave neighs/atom = 221.431
Neighbor list builds = 0
Dangerous builds = 0
  triclinic box = (0 -0.0388306 0) to (23.3007 23.3395 23.3007) with tilt (0 0 0)
WARNING: Resetting reneighboring criteria during minimization (../min.cpp:168)
Ewald initialization ...
  G vector (1/distance) = 0.365032
  estimated absolute RMS force accuracy = 1.95788e-05
  estimated relative force accuracy = 1.35968e-06
  KSpace vectors: actual max1d max3d = 2084 10 4630
                  kxmax kymax kzmax  = 10 10 10
Memory usage per processor = 4.56136 Mbytes
Step Temp E_pair E_mol TotEng Press 
     158           10   -18273.145            0   -18271.843   -12923.806 
     169           10   -18273.203            0   -18271.901     -10784.4 
Loop time of 0.201485 on 12 procs for 11 steps with 1008 atoms

100.0% CPU use with 12 MPI tasks x no OpenMP threads

Minimization stats:
  Stopping criterion = linesearch alpha is zero
  Energy initial, next-to-last, final = 
        -18273.1446473     -18273.2027784     -18273.2027784
  Force two-norm initial, final = 1.14498 0.19875
  Force max component initial, final = 0.106064 0.0307238
  Final line search alpha, max atom move = 2.38419e-07 7.32513e-09
  Iterations, force evaluations = 11 65

MPI task timing breakdown:
Section |  min time  |  avg time  |  max time  |%varavg| %total
---------------------------------------------------------------
Pair    | 0.065449   | 0.073126   | 0.079401   |   1.3 | 36.29
Kspace  | 0.10722    | 0.11239    | 0.1158     |   0.7 | 55.78
Neigh   | 0          | 0          | 0          |   0.0 |  0.00
Comm    | 0.010241   | 0.013986   | 0.018925   |   1.7 |  6.94
Output  | 0          | 0          | 0          |   0.0 |  0.00
Modify  | 0          | 0          | 0          |   0.0 |  0.00
Other   |            | 0.001983   |            |       |  0.98

Nlocal:    84 ave 86 max 79 min
Histogram: 1 0 1 0 0 2 0 1 4 3
Nghost:    2603.75 ave 2624 max 2581 min
Histogram: 2 1 0 3 0 0 0 3 1 2
Neighs:    18568.8 ave 19101 max 17361 min
Histogram: 1 0 0 1 1 1 2 0 3 3

Total # of neighbors = 222825
Ave neighs/atom = 221.057
Neighbor list builds = 0
Dangerous builds = 0
  triclinic box = (0 -0.0582517 0) to (23.3007 23.3589 23.3007) with tilt (0 0 0)
WARNING: Resetting reneighboring criteria during minimization (../min.cpp:168)
Ewald initialization ...
  G vector (1/distance) = 0.365021
  estimated absolute RMS force accuracy = 1.96704e-05
  estimated relative force accuracy = 1.36604e-06
  KSpace vectors: actual max1d max3d = 2084 10 4630
                  kxmax kymax kzmax  = 10 10 10
Memory usage per processor = 4.56136 Mbytes
Step Temp E_pair E_mol TotEng Press 
     169           10   -18272.791            0   -18271.489   -16358.482 
     192           10   -18272.936            0   -18271.634   -12926.935 
Loop time of 0.380699 on 12 procs for 23 steps with 1008 atoms

99.9% CPU use with 12 MPI tasks x no OpenMP threads

Minimization stats:
  Stopping criterion = linesearch alpha is zero
  Energy initial, next-to-last, final = 
        -18272.7911083     -18272.9355399     -18272.9355399
  Force two-norm initial, final = 1.70746 0.121952
  Force max component initial, final = 0.157538 0.0125757
  Final line search alpha, max atom move = 4.76837e-07 5.99656e-09
  Iterations, force evaluations = 23 125

MPI task timing breakdown:
Section |  min time  |  avg time  |  max time  |%varavg| %total
---------------------------------------------------------------
Pair    | 0.12434    | 0.13896    | 0.14895    |   1.7 | 36.50
Kspace  | 0.20306    | 0.21258    | 0.2198     |   1.0 | 55.84
Neigh   | 0          | 0          | 0          |   0.0 |  0.00
Comm    | 0.018293   | 0.025373   | 0.03454    |   2.3 |  6.66
Output  | 0          | 0          | 0          |   0.0 |  0.00
Modify  | 0          | 0          | 0          |   0.0 |  0.00
Other   |            | 0.003788   |            |       |  0.99

Nlocal:    84 ave 86 max 79 min
Histogram: 1 0 1 0 0 2 0 1 4 3
Nghost:    2599.42 ave 2618 max 2576 min
Histogram: 2 0 1 2 1 0 0 2 2 2
Neighs:    18536.8 ave 19065 max 17335 min
Histogram: 1 0 0 1 1 1 1 1 3 3

Total # of neighbors = 222441
Ave neighs/atom = 220.676
Neighbor list builds = 0
Dangerous builds = 0
  triclinic box = (0 0 0.0582517) to (23.3007 23.3007 23.2424) with tilt (0 0 0)
WARNING: Resetting reneighboring criteria during minimization (../min.cpp:168)
Ewald initialization ...
  G vector (1/distance) = 0.365089
  estimated absolute RMS force accuracy = 1.92191e-05
  estimated relative force accuracy = 1.33469e-06
  KSpace vectors: actual max1d max3d = 2088 10 4630
                  kxmax kymax kzmax  = 10 10 10
Memory usage per processor = 4.56136 Mbytes
Step Temp E_pair E_mol TotEng Press 
     192           10   -18273.648            0   -18272.346    4549.4183 
     200           10   -18273.786            0   -18272.484    1252.8312 
     213           10   -18273.801            0   -18272.499    945.13376 
Loop time of 0.260039 on 12 procs for 21 steps with 1008 atoms

99.8% CPU use with 12 MPI tasks x no OpenMP threads

Minimization stats:
  Stopping criterion = linesearch alpha is zero
  Energy initial, next-to-last, final = 
        -18273.6475662     -18273.8009695     -18273.8009695
  Force two-norm initial, final = 1.93218 0.121425
  Force max component initial, final = 0.158552 0.021932
  Final line search alpha, max atom move = 4.76837e-07 1.0458e-08
  Iterations, force evaluations = 21 83

MPI task timing breakdown:
Section |  min time  |  avg time  |  max time  |%varavg| %total
---------------------------------------------------------------
Pair    | 0.083328   | 0.093601   | 0.10273    |   1.7 | 35.99
Kspace  | 0.13803    | 0.14515    | 0.14986    |   0.9 | 55.82
Neigh   | 0          | 0          | 0          |   0.0 |  0.00
Comm    | 0.013064   | 0.018367   | 0.024698   |   2.0 |  7.06
Output  | 3.5048e-05 | 3.6259e-05 | 4.3869e-05 |   0.0 |  0.01
Modify  | 0          | 0          | 0          |   0.0 |  0.00
Other   |            | 0.002885   |            |       |  1.11

Nlocal:    84 ave 86 max 79 min
Histogram: 1 0 1 0 0 2 0 1 4 3
Nghost:    2620.5 ave 2643 max 2597 min
Histogram: 2 1 2 0 1 0 1 2 2 1
Neighs:    18720 ave 19260 max 17491 min
Histogram: 1 0 0 1 1 1 2 0 3 3

Total # of neighbors = 224640
Ave neighs/atom = 222.857
Neighbor list builds = 0
Dangerous builds = 0
  triclinic box = (0 0 0.0388306) to (23.3007 23.3007 23.2618) with tilt (0 0 0)
WARNING: Resetting reneighboring criteria during minimization (../min.cpp:168)
Ewald initialization ...
  G vector (1/distance) = 0.365078
  estimated absolute RMS force accuracy = 1.92793e-05
  estimated relative force accuracy = 1.33888e-06
  KSpace vectors: actual max1d max3d = 2084 10 4630
                  kxmax kymax kzmax  = 10 10 10
Memory usage per processor = 4.56136 Mbytes
Step Temp E_pair E_mol TotEng Press 
     213           10   -18273.718            0   -18272.416    1012.9861 
     226           10   -18273.781            0    -18272.48   -1274.0206 
Loop time of 0.320985 on 12 procs for 13 steps with 1008 atoms

100.0% CPU use with 12 MPI tasks x no OpenMP threads

Minimization stats:
  Stopping criterion = linesearch alpha is zero
  Energy initial, next-to-last, final = 
        -18273.7179761     -18273.7813583     -18273.7813583
  Force two-norm initial, final = 1.28033 0.136356
  Force max component initial, final = 0.104655 0.0162173
  Final line search alpha, max atom move = 4.76837e-07 7.733e-09
  Iterations, force evaluations = 13 105

MPI task timing breakdown:
Section |  min time  |  avg time  |  max time  |%varavg| %total
---------------------------------------------------------------
Pair    | 0.10485    | 0.1174     | 0.12717    |   1.6 | 36.57
Kspace  | 0.17148    | 0.17922    | 0.18474    |   0.8 | 55.84
Neigh   | 0          | 0          | 0          |   0.0 |  0.00
Comm    | 0.015421   | 0.021387   | 0.028979   |   2.1 |  6.66
Output  | 0          | 0          | 0          |   0.0 |  0.00
Modify  | 0          | 0          | 0          |   0.0 |  0.00
Other   |            | 0.002974   |            |       |  0.93

Nlocal:    84 ave 86 max 79 min
Histogram: 1 0 1 0 0 2 0 1 4 3
Nghost:    2618.5 ave 2639 max 2593 min
Histogram: 1 1 1 2 0 1 0 1 3 2
Neighs:    18692.7 ave 19232 max 17472 min
Histogram: 1 0 0 1 1 1 2 0 3 3

Total # of neighbors = 224312
Ave neighs/atom = 222.532
Neighbor list builds = 0
Dangerous builds = 0
  triclinic box = (0 0 0.0194211) to (23.3007 23.3007 23.2813) with tilt (0 0 0)
WARNING: Resetting reneighboring criteria during minimization (../min.cpp:168)
Ewald initialization ...
  G vector (1/distance) = 0.365066
  estimated absolute RMS force accuracy = 1.9345e-05
  estimated relative force accuracy = 1.34344e-06
  KSpace vectors: actual max1d max3d = 2084 10 4630
                  kxmax kymax kzmax  = 10 10 10
Memory usage per processor = 4.56136 Mbytes
Step Temp E_pair E_mol TotEng Press 
     226           10   -18273.702            0     -18272.4   -2483.3194 
     230           10   -18273.714            0   -18272.412   -3268.8312 
Loop time of 0.166729 on 12 procs for 4 steps with 1008 atoms

99.7% CPU use with 12 MPI tasks x no OpenMP threads

Minimization stats:
  Stopping criterion = linesearch alpha is zero
  Energy initial, next-to-last, final = 
        -18273.7017676     -18273.7138459     -18273.7138459
  Force two-norm initial, final = 0.636096 0.246277
  Force max component initial, final = 0.0518421 0.0265074
  Final line search alpha, max atom move = 1.19209e-07 3.15993e-09
  Iterations, force evaluations = 4 53

MPI task timing breakdown:
Section |  min time  |  avg time  |  max time  |%varavg| %total
---------------------------------------------------------------
Pair    | 0.054252   | 0.06072    | 0.064991   |   1.2 | 36.42
Kspace  | 0.089221   | 0.092853   | 0.096173   |   0.6 | 55.69
Neigh   | 0          | 0          | 0          |   0.0 |  0.00
Comm    | 0.0084162  | 0.011551   | 0.015765   |   1.5 |  6.93
Output  | 0          | 0          | 0          |   0.0 |  0.00
Modify  | 0          | 0          | 0          |   0.0 |  0.00
Other   |            | 0.001605   |            |       |  0.96

Nlocal:    84 ave 86 max 79 min
Histogram: 1 0 1 0 0 2 0 1 4 3
Nghost:    2614.75 ave 2636 max 2589 min
Histogram: 2 0 2 1 1 0 0 1 3 2
Neighs:    18663.6 ave 19201 max 17443 min
Histogram: 1 0 0 1 1 1 2 0 3 3

Total # of neighbors = 223963
Ave neighs/atom = 222.186
Neighbor list builds = 0
Dangerous builds = 0
  triclinic box = (0 0 0) to (23.3007 23.3007 23.3007) with tilt (0 0 0)
WARNING: Resetting reneighboring criteria during minimization (../min.cpp:168)
Ewald initialization ...
  G vector (1/distance) = 0.365055
  estimated absolute RMS force accuracy = 1.94166e-05
  estimated relative force accuracy = 1.34841e-06
  KSpace vectors: actual max1d max3d = 2084 10 4630
                  kxmax kymax kzmax  = 10 10 10
Memory usage per processor = 4.56136 Mbytes
Step Temp E_pair E_mol TotEng Press 
     230           10   -18273.601            0     -18272.3    -5944.226 
     232           10   -18273.601            0     -18272.3   -5941.7916 
Loop time of 0.0726061 on 12 procs for 2 steps with 1008 atoms

99.8% CPU use with 12 MPI tasks x no OpenMP threads

Minimization stats:
  Stopping criterion = linesearch alpha is zero
  Energy initial, next-to-last, final = 
         -18273.601313     -18273.6013225     -18273.6013225
  Force two-norm initial, final = 0.00482554 0.00323379
  Force max component initial, final = 0.000346992 0.00039228
  Final line search alpha, max atom move = 0.000976562 3.83085e-07
  Iterations, force evaluations = 2 23

MPI task timing breakdown:
Section |  min time  |  avg time  |  max time  |%varavg| %total
---------------------------------------------------------------
Pair    | 0.023836   | 0.026652   | 0.028676   |   0.7 | 36.71
Kspace  | 0.038663   | 0.040491   | 0.041771   |   0.4 | 55.77
Neigh   | 0          | 0          | 0          |   0.0 |  0.00
Comm    | 0.0033214  | 0.0047762  | 0.0065391  |   1.0 |  6.58
Output  | 0          | 0          | 0          |   0.0 |  0.00
Modify  | 0          | 0          | 0          |   0.0 |  0.00
Other   |            | 0.0006862  |            |       |  0.95

Nlocal:    84 ave 86 max 79 min
Histogram: 1 0 1 0 0 2 0 1 4 3
Nghost:    2611.5 ave 2632 max 2585 min
Histogram: 2 0 2 1 0 1 0 1 3 2
Neighs:    18631 ave 19164 max 17412 min
Histogram: 1 0 0 1 1 1 2 0 3 3

Total # of neighbors = 223572
Ave neighs/atom = 221.798
Neighbor list builds = 0
Dangerous builds = 0
  triclinic box = (0 0 -0.0194211) to (23.3007 23.3007 23.3201) with tilt (0 0 0)
WARNING: Resetting reneighboring criteria during minimization (../min.cpp:168)
Ewald initialization ...
  G vector (1/distance) = 0.365044
  estimated absolute RMS force accuracy = 1.94944e-05
  estimated relative force accuracy = 1.35381e-06
  KSpace vectors: actual max1d max3d = 2084 10 4630
                  kxmax kymax kzmax  = 10 10 10
Memory usage per processor = 4.56136 Mbytes
Step Temp E_pair E_mol TotEng Press 
     232           10   -18273.423            0   -18272.121   -9369.6974 
     237           10   -18273.437            0   -18272.136   -8452.4123 
Loop time of 0.161739 on 12 procs for 5 steps with 1008 atoms

100.0% CPU use with 12 MPI tasks x no OpenMP threads

Minimization stats:
  Stopping criterion = linesearch alpha is zero
  Energy initial, next-to-last, final = 
         -18273.423133     -18273.4372621     -18273.4372621
  Force two-norm initial, final = 0.632019 0.200491
  Force max component initial, final = 0.0509307 0.0295941
  Final line search alpha, max atom move = 2.38419e-07 7.05578e-09
  Iterations, force evaluations = 5 53

MPI task timing breakdown:
Section |  min time  |  avg time  |  max time  |%varavg| %total
---------------------------------------------------------------
Pair    | 0.053161   | 0.059387   | 0.063954   |   1.1 | 36.72
Kspace  | 0.086115   | 0.090152   | 0.092904   |   0.6 | 55.74
Neigh   | 0          | 0          | 0          |   0.0 |  0.00
Comm    | 0.0074956  | 0.010747   | 0.014586   |   1.5 |  6.64
Output  | 0          | 0          | 0          |   0.0 |  0.00
Modify  | 0          | 0          | 0          |   0.0 |  0.00
Other   |            | 0.001453   |            |       |  0.90

Nlocal:    84 ave 86 max 79 min
Histogram: 1 0 1 0 0 2 0 1 4 3
Nghost:    2607.25 ave 2629 max 2583 min
Histogram: 2 1 1 1 1 0 2 0 2 2
Neighs:    18600.9 ave 19136 max 17389 min
Histogram: 1 0 0 1 1 1 2 0 3 3

Total # of neighbors = 223211
Ave neighs/atom = 221.439
Neighbor list builds = 0
Dangerous builds = 0
  triclinic box = (0 0 -0.0388306) to (23.3007 23.3007 23.3395) with tilt (0 0 0)
WARNING: Resetting reneighboring criteria during minimization (../min.cpp:168)
Ewald initialization ...
  G vector (1/distance) = 0.365032
  estimated absolute RMS force accuracy = 1.95788e-05
  estimated relative force accuracy = 1.35968e-06
  KSpace vectors: actual max1d max3d = 2084 10 4630
                  kxmax kymax kzmax  = 10 10 10
Memory usage per processor = 4.56136 Mbytes
Step Temp E_pair E_mol TotEng Press 
     237           10   -18273.161            0   -18271.859   -12756.033 
     250           10   -18273.225            0   -18271.923   -10454.675 
     251           10   -18273.225            0   -18271.923   -10454.675 
Loop time of 0.212125 on 12 procs for 14 steps with 1008 atoms

100.0% CPU use with 12 MPI tasks x no OpenMP threads

Minimization stats:
  Stopping criterion = linesearch alpha is zero
  Energy initial, next-to-last, final = 
        -18273.1608093      -18273.224609      -18273.224609
  Force two-norm initial, final = 1.25543 0.144113
  Force max component initial, final = 0.101599 0.0148428
  Final line search alpha, max atom move = 4.76837e-07 7.07761e-09
  Iterations, force evaluations = 14 69

MPI task timing breakdown:
Section |  min time  |  avg time  |  max time  |%varavg| %total
---------------------------------------------------------------
Pair    | 0.06856    | 0.077248   | 0.083508   |   1.4 | 36.42
Kspace  | 0.11287    | 0.11819    | 0.12232    |   0.8 | 55.72
Neigh   | 0          | 0          | 0          |   0.0 |  0.00
Comm    | 0.0098462  | 0.014417   | 0.019446   |   1.8 |  6.80
Output  | 5.9843e-05 | 6.2386e-05 | 6.6996e-05 |   0.0 |  0.03
Modify  | 0          | 0          | 0          |   0.0 |  0.00
Other   |            | 0.002207   |            |       |  1.04

Nlocal:    84 ave 86 max 79 min
Histogram: 1 0 1 0 0 2 0 1 4 3
Nghost:    2605.25 ave 2626 max 2580 min
Histogram: 2 1 1 1 1 0 0 2 2 2
Neighs:    18570.4 ave 19101 max 17354 min
Histogram: 1 0 0 1 1 1 1 1 3 3

Total # of neighbors = 222845
Ave neighs/atom = 221.076
Neighbor list builds = 0
Dangerous builds = 0
  triclinic box = (0 0 -0.0582517) to (23.3007 23.3007 23.3589) with tilt (0 0 0)
WARNING: Resetting reneighboring criteria during minimization (../min.cpp:168)
Ewald initialization ...
  G vector (1/distance) = 0.365021
  estimated absolute RMS force accuracy = 1.96704e-05
  estimated relative force accuracy = 1.36604e-06
  KSpace vectors: actual max1d max3d = 2084 10 4630
                  kxmax kymax kzmax  = 10 10 10
Memory usage per processor = 4.56136 Mbytes
Step Temp E_pair E_mol TotEng Press 
     251           10   -18272.823            0   -18271.521   -16109.641 
     264           10    -18272.96            0   -18271.659   -12697.526 
Loop time of 0.220471 on 12 procs for 13 steps with 1008 atoms

100.1% CPU use with 12 MPI tasks x no OpenMP threads

Minimization stats:
  Stopping criterion = linesearch alpha is zero
  Energy initial, next-to-last, final = 
        -18272.8227795     -18272.9601692     -18272.9601692
  Force two-norm initial, final = 1.87243 0.237269
  Force max component initial, final = 0.151956 0.0389806
  Final line search alpha, max atom move = 1.19209e-07 4.64685e-09
  Iterations, force evaluations = 13 71

MPI task timing breakdown:
Section |  min time  |  avg time  |  max time  |%varavg| %total
---------------------------------------------------------------
Pair    | 0.070883   | 0.079244   | 0.086993   |   1.4 | 35.94
Kspace  | 0.11771    | 0.12337    | 0.12686    |   0.7 | 55.96
Neigh   | 0          | 0          | 0          |   0.0 |  0.00
Comm    | 0.011295   | 0.015614   | 0.020926   |   1.8 |  7.08
Output  | 0          | 0          | 0          |   0.0 |  0.00
Modify  | 0          | 0          | 0          |   0.0 |  0.00
Other   |            | 0.002239   |            |       |  1.02

Nlocal:    84 ave 86 max 79 min
Histogram: 1 0 1 0 0 2 0 1 4 3
Nghost:    2603 ave 2626 max 2577 min
Histogram: 2 0 2 1 1 0 2 0 2 2
Neighs:    18536.8 ave 19069 max 17324 min
Histogram: 1 0 0 1 1 1 1 1 3 3

Total # of neighbors = 222441
Ave neighs/atom = 220.676
Neighbor list builds = 0
Dangerous builds = 0
  triclinic box = (0 0 0) to (23.3007 23.3007 23.3007) with tilt (-0.116503 0 0)
WARNING: Resetting reneighboring criteria during minimization (../min.cpp:168)
Ewald initialization ...
  G vector (1/distance) = 0.365055
  estimated absolute RMS force accuracy = 1.94166e-05
  estimated relative force accuracy = 1.34841e-06
  KSpace vectors: actual max1d max3d = 2079 10 4630
                  kxmax kymax kzmax  = 10 10 10
Memory usage per processor = 4.56136 Mbytes
Step Temp E_pair E_mol TotEng Press 
     264           10   -18273.387            0   -18272.086   -5902.7363 
     276           10    -18273.45            0   -18272.148   -5922.3858 
Loop time of 0.205696 on 12 procs for 12 steps with 1008 atoms

99.8% CPU use with 12 MPI tasks x no OpenMP threads

Minimization stats:
  Stopping criterion = linesearch alpha is zero
  Energy initial, next-to-last, final = 
        -18273.3873432     -18273.4495071     -18273.4495071
  Force two-norm initial, final = 1.25638 0.17384
  Force max component initial, final = 0.121605 0.0166801
  Final line search alpha, max atom move = 2.38419e-07 3.97685e-09
  Iterations, force evaluations = 12 67

MPI task timing breakdown:
Section |  min time  |  avg time  |  max time  |%varavg| %total
---------------------------------------------------------------
Pair    | 0.067532   | 0.075631   | 0.081143   |   1.2 | 36.77
Kspace  | 0.1106     | 0.11471    | 0.1181     |   0.6 | 55.77
Neigh   | 0          | 0          | 0          |   0.0 |  0.00
Comm    | 0.0097663  | 0.013411   | 0.01837    |   1.7 |  6.52
Output  | 0          | 0          | 0          |   0.0 |  0.00
Modify  | 0          | 0          | 0          |   0.0 |  0.00
Other   |            | 0.00194    |            |       |  0.94

Nlocal:    84 ave 86 max 79 min
Histogram: 1 0 1 0 0 2 0 1 4 3
Nghost:    2611.5 ave 2632 max 2585 min
Histogram: 2 0 2 1 0 1 0 1 3 2
Neighs:    18633.8 ave 19175 max 17415 min
Histogram: 1 0 0 1 1 1 2 0 3 3

Total # of neighbors = 223605
Ave neighs/atom = 221.83
Neighbor list builds = 0
Dangerous builds = 0
  triclinic box = (0 0 0) to (23.3007 23.3007 23.3007) with tilt (-0.077661 0 0)
WARNING: Resetting reneighboring criteria during minimization (../min.cpp:168)
Ewald initialization ...
  G vector (1/distance) = 0.365055
  estimated absolute RMS force accuracy = 1.94166e-05
  estimated relative force accuracy = 1.34841e-06
  KSpace vectors: actual max1d max3d = 2081 10 4630
                  kxmax kymax kzmax  = 10 10 10
Memory usage per processor = 4.56136 Mbytes
Step Temp E_pair E_mol TotEng Press 
     276           10    -18273.49            0   -18272.188   -5921.9379 
     287           10   -18273.516            0   -18272.214    -5925.885 
Loop time of 0.19781 on 12 procs for 11 steps with 1008 atoms

99.8% CPU use with 12 MPI tasks x no OpenMP threads

Minimization stats:
  Stopping criterion = linesearch alpha is zero
  Energy initial, next-to-last, final = 
        -18273.4897209     -18273.5158801     -18273.5158801
  Force two-norm initial, final = 0.837587 0.129505
  Force max component initial, final = 0.0810334 0.0155541
  Final line search alpha, max atom move = 4.76837e-07 7.41677e-09
  Iterations, force evaluations = 11 63

MPI task timing breakdown:
Section |  min time  |  avg time  |  max time  |%varavg| %total
---------------------------------------------------------------
Pair    | 0.064006   | 0.071715   | 0.077833   |   1.3 | 36.25
Kspace  | 0.10527    | 0.11046    | 0.11337    |   0.7 | 55.84
Neigh   | 0          | 0          | 0          |   0.0 |  0.00
Comm    | 0.0098004  | 0.013605   | 0.018451   |   1.7 |  6.88
Output  | 0          | 0          | 0          |   0.0 |  0.00
Modify  | 0          | 0          | 0          |   0.0 |  0.00
Other   |            | 0.002032   |            |       |  1.03

Nlocal:    84 ave 86 max 79 min
Histogram: 1 0 1 0 0 2 0 1 4 3
Nghost:    2611.5 ave 2632 max 2585 min
Histogram: 2 0 2 1 0 1 0 1 3 2
Neighs:    18631.8 ave 19174 max 17420 min
Histogram: 1 0 0 1 1 1 2 0 3 3

Total # of neighbors = 223582
Ave neighs/atom = 221.808
Neighbor list builds = 0
Dangerous builds = 0
  triclinic box = (0 0 0) to (23.3007 23.3007 23.3007) with tilt (-0.038842 0 0)
WARNING: Resetting reneighboring criteria during minimization (../min.cpp:168)
Ewald initialization ...
  G vector (1/distance) = 0.365055
  estimated absolute RMS force accuracy = 1.94166e-05
  estimated relative force accuracy = 1.34841e-06
  KSpace vectors: actual max1d max3d = 2082 10 4630
                  kxmax kymax kzmax  = 10 10 10
Memory usage per processor = 4.56136 Mbytes
Step Temp E_pair E_mol TotEng Press 
     287           10   -18273.558            0   -18272.257   -5935.0826 
     298           10   -18273.567            0   -18272.266   -5931.1354 
Loop time of 0.182249 on 12 procs for 11 steps with 1008 atoms

99.8% CPU use with 12 MPI tasks x no OpenMP threads

Minimization stats:
  Stopping criterion = linesearch alpha is zero
  Energy initial, next-to-last, final = 
        -18273.5583625     -18273.5672272     -18273.5672272
  Force two-norm initial, final = 0.419025 0.0646125
  Force max component initial, final = 0.0405273 0.00784343
  Final line search alpha, max atom move = 1.90735e-06 1.49602e-08
  Iterations, force evaluations = 11 59

MPI task timing breakdown:
Section |  min time  |  avg time  |  max time  |%varavg| %total
---------------------------------------------------------------
Pair    | 0.059687   | 0.066672   | 0.071945   |   1.2 | 36.58
Kspace  | 0.096904   | 0.10154    | 0.10493    |   0.6 | 55.71
Neigh   | 0          | 0          | 0          |   0.0 |  0.00
Comm    | 0.008837   | 0.012201   | 0.016917   |   1.6 |  6.69
Output  | 0          | 0          | 0          |   0.0 |  0.00
Modify  | 0          | 0          | 0          |   0.0 |  0.00
Other   |            | 0.00184    |            |       |  1.01

Nlocal:    84 ave 86 max 79 min
Histogram: 1 0 1 0 0 2 0 1 4 3
Nghost:    2611.5 ave 2632 max 2585 min
Histogram: 2 0 2 1 0 1 0 1 3 2
Neighs:    18631.2 ave 19166 max 17415 min
Histogram: 1 0 0 1 1 1 2 0 3 3

Total # of neighbors = 223574
Ave neighs/atom = 221.8
Neighbor list builds = 0
Dangerous builds = 0
  triclinic box = (0 0 0) to (23.3007 23.3007 23.3007) with tilt (0 0 0)
WARNING: Resetting reneighboring criteria during minimization (../min.cpp:168)
Ewald initialization ...
  G vector (1/distance) = 0.365055
  estimated absolute RMS force accuracy = 1.94166e-05
  estimated relative force accuracy = 1.34841e-06
  KSpace vectors: actual max1d max3d = 2084 10 4630
                  kxmax kymax kzmax  = 10 10 10
Memory usage per processor = 4.56136 Mbytes
Step Temp E_pair E_mol TotEng Press 
     298           10   -18273.601            0     -18272.3    -5944.226 
     300           10   -18273.601            0     -18272.3   -5941.7916 
Loop time of 0.0731578 on 12 procs for 2 steps with 1008 atoms

99.7% CPU use with 12 MPI tasks x no OpenMP threads

Minimization stats:
  Stopping criterion = linesearch alpha is zero
  Energy initial, next-to-last, final = 
         -18273.601313     -18273.6013225     -18273.6013225
  Force two-norm initial, final = 0.00482554 0.00323379
  Force max component initial, final = 0.000346992 0.00039228
  Final line search alpha, max atom move = 0.000976562 3.83085e-07
  Iterations, force evaluations = 2 23

MPI task timing breakdown:
Section |  min time  |  avg time  |  max time  |%varavg| %total
---------------------------------------------------------------
Pair    | 0.023758   | 0.026721   | 0.029049   |   0.8 | 36.52
Kspace  | 0.038854   | 0.04076    | 0.042168   |   0.4 | 55.71
Neigh   | 0          | 0          | 0          |   0.0 |  0.00
Comm    | 0.0035343  | 0.0049803  | 0.0067601  |   1.1 |  6.81
Output  | 0          | 0          | 0          |   0.0 |  0.00
Modify  | 0          | 0          | 0          |   0.0 |  0.00
Other   |            | 0.0006974  |            |       |  0.95

Nlocal:    84 ave 86 max 79 min
Histogram: 1 0 1 0 0 2 0 1 4 3
Nghost:    2611.5 ave 2632 max 2585 min
Histogram: 2 0 2 1 0 1 0 1 3 2
Neighs:    18631 ave 19164 max 17412 min
Histogram: 1 0 0 1 1 1 2 0 3 3

Total # of neighbors = 223572
Ave neighs/atom = 221.798
Neighbor list builds = 0
Dangerous builds = 0
  triclinic box = (0 0 0) to (23.3007 23.3007 23.3007) with tilt (0.038842 0 0)
WARNING: Resetting reneighboring criteria during minimization (../min.cpp:168)
Ewald initialization ...
  G vector (1/distance) = 0.365055
  estimated absolute RMS force accuracy = 1.94166e-05
  estimated relative force accuracy = 1.34841e-06
  KSpace vectors: actual max1d max3d = 2082 10 4630
                  kxmax kymax kzmax  = 10 10 10
Memory usage per processor = 4.56136 Mbytes
Step Temp E_pair E_mol TotEng Press 
     300           10   -18273.617            0   -18272.315   -5948.9175 
     308           10   -18273.623            0   -18272.321   -5949.6612 
Loop time of 0.166719 on 12 procs for 8 steps with 1008 atoms

99.7% CPU use with 12 MPI tasks x no OpenMP threads

Minimization stats:
  Stopping criterion = linesearch alpha is zero
  Energy initial, next-to-last, final = 
        -18273.6166822     -18273.6225458     -18273.6225458
  Force two-norm initial, final = 0.418774 0.0927518
  Force max component initial, final = 0.0404037 0.0195125
  Final line search alpha, max atom move = 9.53674e-07 1.86086e-08
  Iterations, force evaluations = 8 55

MPI task timing breakdown:
Section |  min time  |  avg time  |  max time  |%varavg| %total
---------------------------------------------------------------
Pair    | 0.055131   | 0.061367   | 0.065693   |   1.0 | 36.81
Kspace  | 0.088975   | 0.092736   | 0.095524   |   0.6 | 55.62
Neigh   | 0          | 0          | 0          |   0.0 |  0.00
Comm    | 0.0076632  | 0.010991   | 0.014939   |   1.6 |  6.59
Output  | 0          | 0          | 0          |   0.0 |  0.00
Modify  | 0          | 0          | 0          |   0.0 |  0.00
Other   |            | 0.001625   |            |       |  0.97

Nlocal:    84 ave 86 max 79 min
Histogram: 1 0 1 0 0 2 0 1 4 3
Nghost:    2611.5 ave 2632 max 2585 min
Histogram: 2 0 2 1 0 1 0 1 3 2
Neighs:    18632.9 ave 19163 max 17412 min
Histogram: 1 0 0 1 1 1 1 1 3 3

Total # of neighbors = 223595
Ave neighs/atom = 221.82
Neighbor list builds = 0
Dangerous builds = 0
  triclinic box = (0 0 0) to (23.3007 23.3007 23.3007) with tilt (0.077661 0 0)
WARNING: Resetting reneighboring criteria during minimization (../min.cpp:168)
Ewald initialization ...
  G vector (1/distance) = 0.365055
  estimated absolute RMS force accuracy = 1.94166e-05
  estimated relative force accuracy = 1.34841e-06
  KSpace vectors: actual max1d max3d = 2081 10 4630
                  kxmax kymax kzmax  = 10 10 10
Memory usage per processor = 4.56136 Mbytes
Step Temp E_pair E_mol TotEng Press 
     308           10   -18273.603            0   -18272.301   -5948.7018 
     319           10   -18273.627            0   -18272.326   -5942.2464 
Loop time of 0.195555 on 12 procs for 11 steps with 1008 atoms

99.9% CPU use with 12 MPI tasks x no OpenMP threads

Minimization stats:
  Stopping criterion = linesearch alpha is zero
  Energy initial, next-to-last, final = 
         -18273.602825     -18273.6274826     -18273.6274826
  Force two-norm initial, final = 0.837483 0.129215
  Force max component initial, final = 0.0807934 0.0175499
  Final line search alpha, max atom move = 4.76837e-07 8.36845e-09
  Iterations, force evaluations = 11 63

MPI task timing breakdown:
Section |  min time  |  avg time  |  max time  |%varavg| %total
---------------------------------------------------------------
Pair    | 0.063173   | 0.0708     | 0.07717    |   1.3 | 36.20
Kspace  | 0.10371    | 0.10904    | 0.11264    |   0.7 | 55.76
Neigh   | 0          | 0          | 0          |   0.0 |  0.00
Comm    | 0.0097954  | 0.013721   | 0.017741   |   1.6 |  7.02
Output  | 0          | 0          | 0          |   0.0 |  0.00
Modify  | 0          | 0          | 0          |   0.0 |  0.00
Other   |            | 0.00199    |            |       |  1.02

Nlocal:    84 ave 86 max 79 min
Histogram: 1 0 1 0 0 2 0 1 4 3
Nghost:    2611.5 ave 2632 max 2585 min
Histogram: 2 0 2 1 0 1 0 1 3 2
Neighs:    18630.6 ave 19158 max 17412 min
Histogram: 1 0 0 1 1 1 1 1 3 3

Total # of neighbors = 223567
Ave neighs/atom = 221.793
Neighbor list builds = 0
Dangerous builds = 0
  triclinic box = (0 0 0) to (23.3007 23.3007 23.3007) with tilt (0.116503 0 0)
WARNING: Resetting reneighboring criteria during minimization (../min.cpp:168)
Ewald initialization ...
  G vector (1/distance) = 0.365055
  estimated absolute RMS force accuracy = 1.94166e-05
  estimated relative force accuracy = 1.34841e-06
  KSpace vectors: actual max1d max3d = 2079 10 4630
                  kxmax kymax kzmax  = 10 10 10
Memory usage per processor = 4.56136 Mbytes
Step Temp E_pair E_mol TotEng Press 
     319           10   -18273.562            0    -18272.26   -5944.1987 
     329           10   -18273.619            0   -18272.317   -5950.7635 
Loop time of 0.198324 on 12 procs for 10 steps with 1008 atoms

100.0% CPU use with 12 MPI tasks x no OpenMP threads

Minimization stats:
  Stopping criterion = linesearch alpha is zero
  Energy initial, next-to-last, final = 
        -18273.5620505       -18273.61878       -18273.61878
  Force two-norm initial, final = 1.25657 0.2192
  Force max component initial, final = 0.121154 0.0336089
  Final line search alpha, max atom move = 2.38419e-07 8.01298e-09
  Iterations, force evaluations = 10 63

MPI task timing breakdown:
Section |  min time  |  avg time  |  max time  |%varavg| %total
---------------------------------------------------------------
Pair    | 0.063443   | 0.07152    | 0.078754   |   1.4 | 36.06
Kspace  | 0.10529    | 0.11093    | 0.11437    |   0.7 | 55.94
Neigh   | 0          | 0          | 0          |   0.0 |  0.00
Comm    | 0.0099561  | 0.013779   | 0.018416   |   1.7 |  6.95
Output  | 0          | 0          | 0          |   0.0 |  0.00
Modify  | 0          | 0          | 0          |   0.0 |  0.00
Other   |            | 0.00209    |            |       |  1.05

Nlocal:    84 ave 86 max 79 min
Histogram: 1 0 1 0 0 2 0 1 4 3
Nghost:    2611.5 ave 2632 max 2585 min
Histogram: 2 0 2 1 0 1 0 1 3 2
Neighs:    18630.2 ave 19163 max 17416 min
Histogram: 1 0 0 1 1 1 1 1 3 3

Total # of neighbors = 223562
Ave neighs/atom = 221.788
Neighbor list builds = 0
Dangerous builds = 0
  triclinic box = (0 0 0) to (23.3007 23.3007 23.3007) with tilt (0 -0.116503 0)
WARNING: Resetting reneighboring criteria during minimization (../min.cpp:168)
Ewald initialization ...
  G vector (1/distance) = 0.365055
  estimated absolute RMS force accuracy = 1.94166e-05
  estimated relative force accuracy = 1.34841e-06
  KSpace vectors: actual max1d max3d = 2079 10 4630
                  kxmax kymax kzmax  = 10 10 10
Memory usage per processor = 4.56136 Mbytes
Step Temp E_pair E_mol TotEng Press 
     329           10   -18273.578            0   -18272.277   -5867.7363 
     340           10   -18273.638            0   -18272.336   -5895.8586 
Loop time of 0.196943 on 12 procs for 11 steps with 1008 atoms

99.9% CPU use with 12 MPI tasks x no OpenMP threads

Minimization stats:
  Stopping criterion = linesearch alpha is zero
  Energy initial, next-to-last, final = 
         -18273.578172     -18273.6378598     -18273.6378598
  Force two-norm initial, final = 1.25303 0.198582
  Force max component initial, final = 0.120433 0.0373351
  Final line search alpha, max atom move = 2.38419e-07 8.90138e-09
  Iterations, force evaluations = 11 65

MPI task timing breakdown:
Section |  min time  |  avg time  |  max time  |%varavg| %total
---------------------------------------------------------------
Pair    | 0.06635    | 0.07296    | 0.076849   |   1.0 | 37.05
Kspace  | 0.1059     | 0.10938    | 0.1122     |   0.5 | 55.54
Neigh   | 0          | 0          | 0          |   0.0 |  0.00
Comm    | 0.0095451  | 0.012809   | 0.017581   |   1.6 |  6.50
Output  | 0          | 0          | 0          |   0.0 |  0.00
Modify  | 0          | 0          | 0          |   0.0 |  0.00
Other   |            | 0.001792   |            |       |  0.91

Nlocal:    84 ave 86 max 79 min
Histogram: 1 0 1 0 0 2 0 1 4 3
Nghost:    2611.5 ave 2632 max 2585 min
Histogram: 2 0 2 1 0 1 0 1 3 2
Neighs:    18629.2 ave 19159 max 17414 min
Histogram: 1 0 0 1 1 1 2 0 3 3

Total # of neighbors = 223550
Ave neighs/atom = 221.776
Neighbor list builds = 0
Dangerous builds = 0
  triclinic box = (0 0 0) to (23.3007 23.3007 23.3007) with tilt (0 -0.077661 0)
WARNING: Resetting reneighboring criteria during minimization (../min.cpp:168)
Ewald initialization ...
  G vector (1/distance) = 0.365055
  estimated absolute RMS force accuracy = 1.94166e-05
  estimated relative force accuracy = 1.34841e-06
  KSpace vectors: actual max1d max3d = 2081 10 4630
                  kxmax kymax kzmax  = 10 10 10
Memory usage per processor = 4.56136 Mbytes
Step Temp E_pair E_mol TotEng Press 
     340           10   -18273.613            0   -18272.312   -5898.0853 
     350           10   -18273.639            0   -18272.338   -5910.5299 
     352           10   -18273.641            0   -18272.339   -5908.9675 
Loop time of 0.202106 on 12 procs for 12 steps with 1008 atoms

99.9% CPU use with 12 MPI tasks x no OpenMP threads

Minimization stats:
  Stopping criterion = linesearch alpha is zero
  Energy initial, next-to-last, final = 
        -18273.6134756     -18273.6407819     -18273.6407819
  Force two-norm initial, final = 0.835323 0.119383
  Force max component initial, final = 0.0802033 0.0250946
  Final line search alpha, max atom move = 4.76837e-07 1.1966e-08
  Iterations, force evaluations = 12 65

MPI task timing breakdown:
Section |  min time  |  avg time  |  max time  |%varavg| %total
---------------------------------------------------------------
Pair    | 0.066032   | 0.073309   | 0.07971    |   1.2 | 36.27
Kspace  | 0.10717    | 0.1127     | 0.11639    |   0.7 | 55.76
Neigh   | 0          | 0          | 0          |   0.0 |  0.00
Comm    | 0.0097616  | 0.013745   | 0.018578   |   1.7 |  6.80
Output  | 3.5048e-05 | 3.7193e-05 | 4.6015e-05 |   0.0 |  0.02
Modify  | 0          | 0          | 0          |   0.0 |  0.00
Other   |            | 0.002312   |            |       |  1.14

Nlocal:    84 ave 86 max 79 min
Histogram: 1 0 1 0 0 2 0 1 4 3
Nghost:    2611.5 ave 2632 max 2585 min
Histogram: 2 0 2 1 0 1 0 1 3 2
Neighs:    18629.7 ave 19155 max 17419 min
Histogram: 1 0 0 1 1 1 1 1 3 3

Total # of neighbors = 223556
Ave neighs/atom = 221.782
Neighbor list builds = 0
Dangerous builds = 0
  triclinic box = (0 0 0) to (23.3007 23.3007 23.3007) with tilt (0 -0.038842 0)
WARNING: Resetting reneighboring criteria during minimization (../min.cpp:168)
Ewald initialization ...
  G vector (1/distance) = 0.365055
  estimated absolute RMS force accuracy = 1.94166e-05
  estimated relative force accuracy = 1.34841e-06
  KSpace vectors: actual max1d max3d = 2082 10 4630
                  kxmax kymax kzmax  = 10 10 10
Memory usage per processor = 4.56136 Mbytes
Step Temp E_pair E_mol TotEng Press 
     352           10   -18273.622            0    -18272.32   -5923.6512 
     357           10   -18273.628            0   -18272.326   -5929.7941 
Loop time of 0.160309 on 12 procs for 5 steps with 1008 atoms

100.0% CPU use with 12 MPI tasks x no OpenMP threads

Minimization stats:
  Stopping criterion = linesearch alpha is zero
  Energy initial, next-to-last, final = 
        -18273.6216535     -18273.6280601     -18273.6280601
  Force two-norm initial, final = 0.417819 0.132216
  Force max component initial, final = 0.0400647 0.019261
  Final line search alpha, max atom move = 4.76837e-07 9.18437e-09
  Iterations, force evaluations = 5 51

MPI task timing breakdown:
Section |  min time  |  avg time  |  max time  |%varavg| %total
---------------------------------------------------------------
Pair    | 0.051307   | 0.057708   | 0.063738   |   1.3 | 36.00
Kspace  | 0.084701   | 0.089704   | 0.092768   |   0.7 | 55.96
Neigh   | 0          | 0          | 0          |   0.0 |  0.00
Comm    | 0.007786   | 0.011267   | 0.015115   |   1.6 |  7.03
Output  | 0          | 0          | 0          |   0.0 |  0.00
Modify  | 0          | 0          | 0          |   0.0 |  0.00
Other   |            | 0.001629   |            |       |  1.02

Nlocal:    84 ave 86 max 79 min
Histogram: 1 0 1 0 0 2 0 1 4 3
Nghost:    2611.5 ave 2632 max 2585 min
Histogram: 2 0 2 1 0 1 0 1 3 2
Neighs:    18630.1 ave 19167 max 17416 min
Histogram: 1 0 0 1 1 1 2 0 3 3

Total # of neighbors = 223561
Ave neighs/atom = 221.787
Neighbor list builds = 0
Dangerous builds = 0
  triclinic box = (0 0 0) to (23.3007 23.3007 23.3007) with tilt (0 0 0)
WARNING: Resetting reneighboring criteria during minimization (../min.cpp:168)
Ewald initialization ...
  G vector (1/distance) = 0.365055
  estimated absolute RMS force accuracy = 1.94166e-05
  estimated relative force accuracy = 1.34841e-06
  KSpace vectors: actual max1d max3d = 2084 10 4630
                  kxmax kymax kzmax  = 10 10 10
Memory usage per processor = 4.56136 Mbytes
Step Temp E_pair E_mol TotEng Press 
     357           10   -18273.601            0     -18272.3    -5944.226 
     359           10   -18273.601            0     -18272.3   -5941.7916 
Loop time of 0.0707729 on 12 procs for 2 steps with 1008 atoms

100.1% CPU use with 12 MPI tasks x no OpenMP threads

Minimization stats:
  Stopping criterion = linesearch alpha is zero
  Energy initial, next-to-last, final = 
         -18273.601313     -18273.6013225     -18273.6013225
  Force two-norm initial, final = 0.00482554 0.00323379
  Force max component initial, final = 0.000346992 0.00039228
  Final line search alpha, max atom move = 0.000976562 3.83085e-07
  Iterations, force evaluations = 2 23

MPI task timing breakdown:
Section |  min time  |  avg time  |  max time  |%varavg| %total
---------------------------------------------------------------
Pair    | 0.023782   | 0.026286   | 0.027983   |   0.7 | 37.14
Kspace  | 0.037982   | 0.039455   | 0.040595   |   0.3 | 55.75
Neigh   | 0          | 0          | 0          |   0.0 |  0.00
Comm    | 0.00302    | 0.0044099  | 0.006114   |   1.1 |  6.23
Output  | 0          | 0          | 0          |   0.0 |  0.00
Modify  | 0          | 0          | 0          |   0.0 |  0.00
Other   |            | 0.0006216  |            |       |  0.88

Nlocal:    84 ave 86 max 79 min
Histogram: 1 0 1 0 0 2 0 1 4 3
Nghost:    2611.5 ave 2632 max 2585 min
Histogram: 2 0 2 1 0 1 0 1 3 2
Neighs:    18631 ave 19164 max 17412 min
Histogram: 1 0 0 1 1 1 2 0 3 3

Total # of neighbors = 223572
Ave neighs/atom = 221.798
Neighbor list builds = 0
Dangerous builds = 0
  triclinic box = (0 0 0) to (23.3007 23.3007 23.3007) with tilt (0 0.038842 0)
WARNING: Resetting reneighboring criteria during minimization (../min.cpp:168)
Ewald initialization ...
  G vector (1/distance) = 0.365055
  estimated absolute RMS force accuracy = 1.94166e-05
  estimated relative force accuracy = 1.34841e-06
  KSpace vectors: actual max1d max3d = 2082 10 4630
                  kxmax kymax kzmax  = 10 10 10
Memory usage per processor = 4.56136 Mbytes
Step Temp E_pair E_mol TotEng Press 
     359           10   -18273.554            0   -18272.252   -5960.0307 
     362           10   -18273.558            0   -18272.256   -5946.3588 
Loop time of 0.149214 on 12 procs for 3 steps with 1008 atoms

100.0% CPU use with 12 MPI tasks x no OpenMP threads

Minimization stats:
  Stopping criterion = linesearch alpha is zero
  Energy initial, next-to-last, final = 
        -18273.5536843      -18273.557713      -18273.557713
  Force two-norm initial, final = 0.417951 0.200943
  Force max component initial, final = 0.0400128 0.0262558
  Final line search alpha, max atom move = 2.38419e-07 6.25987e-09
  Iterations, force evaluations = 3 49

MPI task timing breakdown:
Section |  min time  |  avg time  |  max time  |%varavg| %total
---------------------------------------------------------------
Pair    | 0.04933    | 0.055026   | 0.058873   |   1.0 | 36.88
Kspace  | 0.079338   | 0.082858   | 0.085593   |   0.6 | 55.53
Neigh   | 0          | 0          | 0          |   0.0 |  0.00
Comm    | 0.0068612  | 0.0099491  | 0.013525   |   1.5 |  6.67
Output  | 0          | 0          | 0          |   0.0 |  0.00
Modify  | 0          | 0          | 0          |   0.0 |  0.00
Other   |            | 0.001381   |            |       |  0.93

Nlocal:    84 ave 86 max 79 min
Histogram: 1 0 1 0 0 2 0 1 4 3
Nghost:    2611.5 ave 2632 max 2585 min
Histogram: 2 0 2 1 0 1 0 1 3 2
Neighs:    18632.3 ave 19170 max 17417 min
Histogram: 1 0 0 1 1 1 2 0 3 3

Total # of neighbors = 223588
Ave neighs/atom = 221.813
Neighbor list builds = 0
Dangerous builds = 0
  triclinic box = (0 0 0) to (23.3007 23.3007 23.3007) with tilt (0 0.077661 0)
WARNING: Resetting reneighboring criteria during minimization (../min.cpp:168)
Ewald initialization ...
  G vector (1/distance) = 0.365055
  estimated absolute RMS force accuracy = 1.94166e-05
  estimated relative force accuracy = 1.34841e-06
  KSpace vectors: actual max1d max3d = 2081 10 4630
                  kxmax kymax kzmax  = 10 10 10
Memory usage per processor = 4.56136 Mbytes
Step Temp E_pair E_mol TotEng Press 
     362           10   -18273.478            0   -18272.176   -5970.9764 
     370           10     -18273.5            0   -18272.199   -5956.1408 
Loop time of 0.1906 on 12 procs for 8 steps with 1008 atoms

99.9% CPU use with 12 MPI tasks x no OpenMP threads

Minimization stats:
  Stopping criterion = linesearch alpha is zero
  Energy initial, next-to-last, final = 
        -18273.4779519     -18273.5004388     -18273.5004388
  Force two-norm initial, final = 0.835676 0.172818
  Force max component initial, final = 0.0799142 0.0241555
  Final line search alpha, max atom move = 2.38419e-07 5.75912e-09
  Iterations, force evaluations = 8 59

MPI task timing breakdown:
Section |  min time  |  avg time  |  max time  |%varavg| %total
---------------------------------------------------------------
Pair    | 0.062541   | 0.068435   | 0.072327   |   0.9 | 35.90
Kspace  | 0.099861   | 0.10412    | 0.10761    |   0.7 | 54.63
Neigh   | 0          | 0          | 0          |   0.0 |  0.00
Comm    | 0.011959   | 0.015577   | 0.01913    |   1.4 |  8.17
Output  | 0          | 0          | 0          |   0.0 |  0.00
Modify  | 0          | 0          | 0          |   0.0 |  0.00
Other   |            | 0.002469   |            |       |  1.30

Nlocal:    84 ave 86 max 79 min
Histogram: 1 0 1 0 0 2 0 1 4 3
Nghost:    2611.5 ave 2632 max 2585 min
Histogram: 2 0 2 1 0 1 0 1 3 2
Neighs:    18631.8 ave 19171 max 17414 min
Histogram: 1 0 0 1 1 1 2 0 3 3

Total # of neighbors = 223582
Ave neighs/atom = 221.808
Neighbor list builds = 0
Dangerous builds = 0
  triclinic box = (0 0 0) to (23.3007 23.3007 23.3007) with tilt (0 0.116503 0)
WARNING: Resetting reneighboring criteria during minimization (../min.cpp:168)
Ewald initialization ...
  G vector (1/distance) = 0.365055
  estimated absolute RMS force accuracy = 1.94166e-05
  estimated relative force accuracy = 1.34841e-06
  KSpace vectors: actual max1d max3d = 2079 10 4630
                  kxmax kymax kzmax  = 10 10 10
Memory usage per processor = 4.56136 Mbytes
Step Temp E_pair E_mol TotEng Press 
     370           10   -18273.374            0   -18272.072   -5976.8224 
     391           10   -18273.437            0   -18272.135   -5993.4353 
Loop time of 0.308018 on 12 procs for 21 steps with 1008 atoms

99.9% CPU use with 12 MPI tasks x no OpenMP threads

Minimization stats:
  Stopping criterion = linesearch alpha is zero
  Energy initial, next-to-last, final = 
         -18273.373982     -18273.4367219     -18273.4367219
  Force two-norm initial, final = 1.25382 0.0756952
  Force max component initial, final = 0.119759 0.00814052
  Final line search alpha, max atom move = 1.90735e-06 1.55268e-08
  Iterations, force evaluations = 21 79

MPI task timing breakdown:
Section |  min time  |  avg time  |  max time  |%varavg| %total
---------------------------------------------------------------
Pair    | 0.082721   | 0.090838   | 0.096948   |   1.1 | 29.49
Kspace  | 0.13956    | 0.15868    | 0.16806    |   2.2 | 51.52
Neigh   | 0          | 0          | 0          |   0.0 |  0.00
Comm    | 0.038697   | 0.046866   | 0.060721   |   3.5 | 15.22
Output  | 0          | 0          | 0          |   0.0 |  0.00
Modify  | 0          | 0          | 0          |   0.0 |  0.00
Other   |            | 0.01164    |            |       |  3.78

Nlocal:    84 ave 86 max 79 min
Histogram: 1 0 1 0 0 2 0 1 4 3
Nghost:    2611.5 ave 2632 max 2585 min
Histogram: 2 0 2 1 0 1 0 1 3 2
Neighs:    18631.2 ave 19174 max 17415 min
Histogram: 1 0 0 1 1 1 2 0 3 3

Total # of neighbors = 223575
Ave neighs/atom = 221.801
Neighbor list builds = 0
Dangerous builds = 0
  triclinic box = (0 0 0) to (23.3007 23.3007 23.3007) with tilt (0 0 -0.116503)
WARNING: Resetting reneighboring criteria during minimization (../min.cpp:168)
Ewald initialization ...
  G vector (1/distance) = 0.365055
  estimated absolute RMS force accuracy = 1.94166e-05
  estimated relative force accuracy = 1.34841e-06
  KSpace vectors: actual max1d max3d = 2079 10 4630
                  kxmax kymax kzmax  = 10 10 10
Memory usage per processor = 4.56136 Mbytes
Step Temp E_pair E_mol TotEng Press 
     391           10   -18273.692            0    -18272.39   -5936.8937 
     400           10    -18273.75            0   -18272.448   -5783.9504 
     404           10   -18273.752            0    -18272.45   -5776.1564 
Loop time of 0.215366 on 12 procs for 13 steps with 1008 atoms

99.7% CPU use with 12 MPI tasks x no OpenMP threads

Minimization stats:
  Stopping criterion = linesearch alpha is zero
  Energy initial, next-to-last, final = 
        -18273.6918234     -18273.7520811     -18273.7520811
  Force two-norm initial, final = 1.26013 0.166434
  Force max component initial, final = 0.119861 0.0154672
  Final line search alpha, max atom move = 2.38419e-07 3.68768e-09
  Iterations, force evaluations = 13 69

MPI task timing breakdown:
Section |  min time  |  avg time  |  max time  |%varavg| %total
---------------------------------------------------------------
Pair    | 0.070688   | 0.078121   | 0.081911   |   1.0 | 36.27
Kspace  | 0.11426    | 0.11831    | 0.12245    |   0.6 | 54.94
Neigh   | 0          | 0          | 0          |   0.0 |  0.00
Comm    | 0.013412   | 0.015717   | 0.020613   |   1.5 |  7.30
Output  | 3.9816e-05 | 4.6829e-05 | 6.1989e-05 |   0.1 |  0.02
Modify  | 0          | 0          | 0          |   0.0 |  0.00
Other   |            | 0.003169   |            |       |  1.47

Nlocal:    84 ave 86 max 79 min
Histogram: 1 0 1 0 0 2 0 1 4 3
Nghost:    2611.5 ave 2632 max 2585 min
Histogram: 2 0 2 1 0 1 0 1 3 2
Neighs:    18630.2 ave 19175 max 17410 min
Histogram: 1 0 0 1 1 1 2 0 3 3

Total # of neighbors = 223562
Ave neighs/atom = 221.788
Neighbor list builds = 0
Dangerous builds = 0
  triclinic box = (0 0 0) to (23.3007 23.3007 23.3007) with tilt (0 0 -0.077661)
WARNING: Resetting reneighboring criteria during minimization (../min.cpp:168)
Ewald initialization ...
  G vector (1/distance) = 0.365055
  estimated absolute RMS force accuracy = 1.94166e-05
  estimated relative force accuracy = 1.34841e-06
  KSpace vectors: actual max1d max3d = 2081 10 4630
                  kxmax kymax kzmax  = 10 10 10
Memory usage per processor = 4.56136 Mbytes
Step Temp E_pair E_mol TotEng Press 
     404           10   -18273.688            0   -18272.387   -5943.7626 
     415           10   -18273.715            0   -18272.414    -5832.611 
Loop time of 0.204587 on 12 procs for 11 steps with 1008 atoms

99.8% CPU use with 12 MPI tasks x no OpenMP threads

Minimization stats:
  Stopping criterion = linesearch alpha is zero
  Energy initial, next-to-last, final = 
        -18273.6884929     -18273.7154168     -18273.7154168
  Force two-norm initial, final = 0.840049 0.133739
  Force max component initial, final = 0.0799212 0.0148967
  Final line search alpha, max atom move = 4.76837e-07 7.10331e-09
  Iterations, force evaluations = 11 63

MPI task timing breakdown:
Section |  min time  |  avg time  |  max time  |%varavg| %total
---------------------------------------------------------------
Pair    | 0.064254   | 0.07118    | 0.074879   |   1.0 | 34.79
Kspace  | 0.10623    | 0.11163    | 0.11605    |   0.8 | 54.56
Neigh   | 0          | 0          | 0          |   0.0 |  0.00
Comm    | 0.015144   | 0.018415   | 0.021979   |   1.5 |  9.00
Output  | 0          | 0          | 0          |   0.0 |  0.00
Modify  | 0          | 0          | 0          |   0.0 |  0.00
Other   |            | 0.003367   |            |       |  1.65

Nlocal:    84 ave 86 max 79 min
Histogram: 1 0 1 0 0 2 0 1 4 3
Nghost:    2611.5 ave 2632 max 2585 min
Histogram: 2 0 2 1 0 1 0 1 3 2
Neighs:    18630.8 ave 19168 max 17412 min
Histogram: 1 0 0 1 1 1 2 0 3 3

Total # of neighbors = 223570
Ave neighs/atom = 221.796
Neighbor list builds = 0
Dangerous builds = 0
  triclinic box = (0 0 0) to (23.3007 23.3007 23.3007) with tilt (0 0 -0.038842)
WARNING: Resetting reneighboring criteria during minimization (../min.cpp:168)
Ewald initialization ...
  G vector (1/distance) = 0.365055
  estimated absolute RMS force accuracy = 1.94166e-05
  estimated relative force accuracy = 1.34841e-06
  KSpace vectors: actual max1d max3d = 2082 10 4630
                  kxmax kymax kzmax  = 10 10 10
Memory usage per processor = 4.56136 Mbytes
Step Temp E_pair E_mol TotEng Press 
[...]
        -18273.3980264      -18273.402891      -18273.402891
  Force two-norm initial, final = 0.415205 0.13501
  Force max component initial, final = 0.0406016 0.0183521
  Final line search alpha, max atom move = 4.76837e-07 8.75097e-09
  Iterations, force evaluations = 5 51

MPI task timing breakdown:
Section |  min time  |  avg time  |  max time  |%varavg| %total
---------------------------------------------------------------
Pair    | 0.051566   | 0.058217   | 0.062436   |   1.2 | 36.40
Kspace  | 0.084879   | 0.08888    | 0.092031   |   0.7 | 55.58
Neigh   | 0          | 0          | 0          |   0.0 |  0.00
Comm    | 0.0078626  | 0.0113     | 0.015356   |   1.6 |  7.07
Output  | 0          | 0          | 0          |   0.0 |  0.00
Modify  | 0          | 0          | 0          |   0.0 |  0.00
Other   |            | 0.001529   |            |       |  0.96

Nlocal:    84 ave 86 max 78 min
Histogram: 1 0 0 0 0 1 2 2 2 4
Nghost:    2614.17 ave 2635 max 2590 min
Histogram: 2 0 1 1 1 1 3 1 0 2
Neighs:    18631.3 ave 19166 max 17202 min
Histogram: 1 0 0 0 0 1 3 2 1 4

Total # of neighbors = 223576
Ave neighs/atom = 221.802
Neighbor list builds = 0
Dangerous builds = 0
  triclinic box = (0 0 0) to (23.3007 23.3007 23.3007) with tilt (0 0.077661 0)
WARNING: Resetting reneighboring criteria during minimization (../min.cpp:168)
Ewald initialization ...
  G vector (1/distance) = 0.365055
  estimated absolute RMS force accuracy = 1.94166e-05
  estimated relative force accuracy = 1.34841e-06
  KSpace vectors: actual max1d max3d = 2081 10 4630
                  kxmax kymax kzmax  = 10 10 10
Memory usage per processor = 4.56136 Mbytes
Step Temp E_pair E_mol TotEng Press 
     909           10   -18273.323            0   -18272.021   -5946.5521 
     917           10   -18273.347            0   -18272.045   -5967.6159 
Loop time of 0.309574 on 12 procs for 8 steps with 1008 atoms

99.9% CPU use with 12 MPI tasks x no OpenMP threads

Minimization stats:
  Stopping criterion = linesearch alpha is zero
  Energy initial, next-to-last, final = 
        -18273.3230943     -18273.3466936     -18273.3466936
  Force two-norm initial, final = 0.830238 0.197272
  Force max component initial, final = 0.0810802 0.027007
  Final line search alpha, max atom move = 2.38419e-07 6.43897e-09
  Iterations, force evaluations = 8 99

MPI task timing breakdown:
Section |  min time  |  avg time  |  max time  |%varavg| %total
---------------------------------------------------------------
Pair    | 0.10081    | 0.11296    | 0.11929    |   1.5 | 36.49
Kspace  | 0.16505    | 0.17169    | 0.17658    |   0.8 | 55.46
Neigh   | 0          | 0          | 0          |   0.0 |  0.00
Comm    | 0.015579   | 0.021948   | 0.030059   |   2.1 |  7.09
Output  | 0          | 0          | 0          |   0.0 |  0.00
Modify  | 0          | 0          | 0          |   0.0 |  0.00
Other   |            | 0.002974   |            |       |  0.96

Nlocal:    84 ave 86 max 78 min
Histogram: 1 0 0 0 0 1 2 2 2 4
Nghost:    2614.17 ave 2635 max 2590 min
Histogram: 2 0 1 1 1 1 3 1 0 2
Neighs:    18634 ave 19179 max 17202 min
Histogram: 1 0 0 0 0 1 3 2 1 4

Total # of neighbors = 223608
Ave neighs/atom = 221.833
Neighbor list builds = 0
Dangerous builds = 0
  triclinic box = (0 0 0) to (23.3007 23.3007 23.3007) with tilt (0 0.116503 0)
WARNING: Resetting reneighboring criteria during minimization (../min.cpp:168)
Ewald initialization ...
  G vector (1/distance) = 0.365055
  estimated absolute RMS force accuracy = 1.94166e-05
  estimated relative force accuracy = 1.34841e-06
  KSpace vectors: actual max1d max3d = 2079 10 4630
                  kxmax kymax kzmax  = 10 10 10
Memory usage per processor = 4.56136 Mbytes
Step Temp E_pair E_mol TotEng Press 
     917           10   -18273.221            0   -18271.919    -5952.258 
     933           10    -18273.28            0   -18271.979   -6023.3509 
Loop time of 0.22901 on 12 procs for 16 steps with 1008 atoms

99.8% CPU use with 12 MPI tasks x no OpenMP threads

Minimization stats:
  Stopping criterion = linesearch alpha is zero
  Energy initial, next-to-last, final = 
        -18273.2208415     -18273.2802795     -18273.2802795
  Force two-norm initial, final = 1.2457 0.117492
  Force max component initial, final = 0.121504 0.0192922
  Final line search alpha, max atom move = 4.76837e-07 9.19924e-09
  Iterations, force evaluations = 16 73

MPI task timing breakdown:
Section |  min time  |  avg time  |  max time  |%varavg| %total
---------------------------------------------------------------
Pair    | 0.072854   | 0.082696   | 0.089167   |   1.5 | 36.11
Kspace  | 0.12212    | 0.12744    | 0.13195    |   0.8 | 55.65
Neigh   | 0          | 0          | 0          |   0.0 |  0.00
Comm    | 0.012961   | 0.016349   | 0.022314   |   1.7 |  7.14
Output  | 0          | 0          | 0          |   0.0 |  0.00
Modify  | 0          | 0          | 0          |   0.0 |  0.00
Other   |            | 0.00252    |            |       |  1.10

Nlocal:    84 ave 86 max 78 min
Histogram: 1 0 0 0 0 1 2 2 2 4
Nghost:    2614.17 ave 2635 max 2590 min
Histogram: 2 0 1 1 1 1 3 1 0 2
Neighs:    18634.8 ave 19187 max 17208 min
Histogram: 1 0 0 0 0 1 3 2 1 4

Total # of neighbors = 223617
Ave neighs/atom = 221.842
Neighbor list builds = 0
Dangerous builds = 0
  triclinic box = (0 0 0) to (23.3007 23.3007 23.3007) with tilt (0 0 -0.116503)
WARNING: Resetting reneighboring criteria during minimization (../min.cpp:168)
Ewald initialization ...
  G vector (1/distance) = 0.365055
  estimated absolute RMS force accuracy = 1.94166e-05
  estimated relative force accuracy = 1.34841e-06
  KSpace vectors: actual max1d max3d = 2079 10 4630
                  kxmax kymax kzmax  = 10 10 10
Memory usage per processor = 4.56136 Mbytes
Step Temp E_pair E_mol TotEng Press 
     933           10   -18273.643            0   -18272.341   -5926.5239 
     946           10   -18273.706            0   -18272.404    -5713.907 
Loop time of 0.223867 on 12 procs for 13 steps with 1008 atoms

99.9% CPU use with 12 MPI tasks x no OpenMP threads

Minimization stats:
  Stopping criterion = linesearch alpha is zero
  Energy initial, next-to-last, final = 
        -18273.6426678     -18273.7057301     -18273.7057301
  Force two-norm initial, final = 1.25459 0.189956
  Force max component initial, final = 0.121607 0.0144797
  Final line search alpha, max atom move = 2.38419e-07 3.45224e-09
  Iterations, force evaluations = 13 71

MPI task timing breakdown:
Section |  min time  |  avg time  |  max time  |%varavg| %total
---------------------------------------------------------------
Pair    | 0.073568   | 0.081073   | 0.087132   |   1.4 | 36.22
Kspace  | 0.1199     | 0.12492    | 0.12877    |   0.7 | 55.80
Neigh   | 0          | 0          | 0          |   0.0 |  0.00
Comm    | 0.013138   | 0.015308   | 0.01995    |   1.6 |  6.84
Output  | 0          | 0          | 0          |   0.0 |  0.00
Modify  | 0          | 0          | 0          |   0.0 |  0.00
Other   |            | 0.002562   |            |       |  1.14

Nlocal:    84 ave 86 max 78 min
Histogram: 1 0 0 0 0 1 2 2 2 4
Nghost:    2614.17 ave 2635 max 2590 min
Histogram: 2 0 1 1 1 1 3 1 0 2
Neighs:    18632.5 ave 19172 max 17209 min
Histogram: 1 0 0 0 0 1 3 2 1 4

Total # of neighbors = 223590
Ave neighs/atom = 221.815
Neighbor list builds = 0
Dangerous builds = 0
  triclinic box = (0 0 0) to (23.3007 23.3007 23.3007) with tilt (0 0 -0.077661)
WARNING: Resetting reneighboring criteria during minimization (../min.cpp:168)
Ewald initialization ...
  G vector (1/distance) = 0.365055
  estimated absolute RMS force accuracy = 1.94166e-05
  estimated relative force accuracy = 1.34841e-06
  KSpace vectors: actual max1d max3d = 2081 10 4630
                  kxmax kymax kzmax  = 10 10 10
Memory usage per processor = 4.56136 Mbytes
Step Temp E_pair E_mol TotEng Press 
     946           10   -18273.605            0   -18272.303     -5929.31 
     950           10   -18273.628            0   -18272.326   -5830.2392 
     953           10   -18273.631            0   -18272.329    -5808.979 
Loop time of 0.17527 on 12 procs for 7 steps with 1008 atoms

99.7% CPU use with 12 MPI tasks x no OpenMP threads

Minimization stats:
  Stopping criterion = linesearch alpha is zero
  Energy initial, next-to-last, final = 
         -18273.604644      -18273.630843      -18273.630843
  Force two-norm initial, final = 0.836418 0.210927
  Force max component initial, final = 0.0810872 0.0580862
  Final line search alpha, max atom move = 2.38419e-07 1.38488e-08
  Iterations, force evaluations = 7 57

MPI task timing breakdown:
Section |  min time  |  avg time  |  max time  |%varavg| %total
---------------------------------------------------------------
Pair    | 0.058787   | 0.064553   | 0.068353   |   1.1 | 36.83
Kspace  | 0.094796   | 0.09852    | 0.10113    |   0.5 | 56.21
Neigh   | 0          | 0          | 0          |   0.0 |  0.00
Comm    | 0.0084491  | 0.010513   | 0.014537   |   1.6 |  6.00
Output  | 3.4094e-05 | 3.5862e-05 | 4.1962e-05 |   0.0 |  0.02
Modify  | 0          | 0          | 0          |   0.0 |  0.00
Other   |            | 0.001648   |            |       |  0.94

Nlocal:    84 ave 86 max 78 min
Histogram: 1 0 0 0 0 1 2 2 2 4
Nghost:    2614.17 ave 2635 max 2590 min
Histogram: 2 0 1 1 1 1 3 1 0 2
Neighs:    18633 ave 19170 max 17205 min
Histogram: 1 0 0 0 0 1 3 2 0 5

Total # of neighbors = 223596
Ave neighs/atom = 221.821
Neighbor list builds = 0
Dangerous builds = 0
  triclinic box = (0 0 0) to (23.3007 23.3007 23.3007) with tilt (0 0 -0.038842)
WARNING: Resetting reneighboring criteria during minimization (../min.cpp:168)
Ewald initialization ...
  G vector (1/distance) = 0.365055
  estimated absolute RMS force accuracy = 1.94166e-05
  estimated relative force accuracy = 1.34841e-06
  KSpace vectors: actual max1d max3d = 2082 10 4630
                  kxmax kymax kzmax  = 10 10 10
Memory usage per processor = 4.56136 Mbytes
Step Temp E_pair E_mol TotEng Press 
     953           10    -18273.54            0   -18272.239   -5927.8857 
     963           10   -18273.548            0   -18272.246   -5852.2129 
Loop time of 0.17545 on 12 procs for 10 steps with 1008 atoms

99.9% CPU use with 12 MPI tasks x no OpenMP threads

Minimization stats:
  Stopping criterion = linesearch alpha is zero
  Energy initial, next-to-last, final = 
        -18273.5403687     -18273.5477437     -18273.5477437
  Force two-norm initial, final = 0.418437 0.080514
  Force max component initial, final = 0.0405512 0.0116578
  Final line search alpha, max atom move = 1.90735e-06 2.22355e-08
  Iterations, force evaluations = 10 57

MPI task timing breakdown:
Section |  min time  |  avg time  |  max time  |%varavg| %total
---------------------------------------------------------------
Pair    | 0.057321   | 0.063804   | 0.069343   |   1.3 | 36.37
Kspace  | 0.094047   | 0.098551   | 0.10183    |   0.7 | 56.17
Neigh   | 0          | 0          | 0          |   0.0 |  0.00
Comm    | 0.0096865  | 0.011247   | 0.0146     |   1.3 |  6.41
Output  | 0          | 0          | 0          |   0.0 |  0.00
Modify  | 0          | 0          | 0          |   0.0 |  0.00
Other   |            | 0.001849   |            |       |  1.05

Nlocal:    84 ave 86 max 78 min
Histogram: 1 0 0 0 0 1 2 2 2 4
Nghost:    2614.17 ave 2635 max 2590 min
Histogram: 2 0 1 1 1 1 3 1 0 2
Neighs:    18634.2 ave 19165 max 17207 min
Histogram: 1 0 0 0 0 1 3 2 0 5

Total # of neighbors = 223610
Ave neighs/atom = 221.835
Neighbor list builds = 0
Dangerous builds = 0
  triclinic box = (0 0 0) to (23.3007 23.3007 23.3007) with tilt (0 0 0)
WARNING: Resetting reneighboring criteria during minimization (../min.cpp:168)
Ewald initialization ...
  G vector (1/distance) = 0.365055
  estimated absolute RMS force accuracy = 1.94166e-05
  estimated relative force accuracy = 1.34841e-06
  KSpace vectors: actual max1d max3d = 2084 10 4630
                  kxmax kymax kzmax  = 10 10 10
Memory usage per processor = 4.56136 Mbytes
Step Temp E_pair E_mol TotEng Press 
     963           10   -18273.444            0   -18272.143   -5920.7853 
     966           10   -18273.444            0   -18272.143   -5916.3077 
Loop time of 0.0867287 on 12 procs for 3 steps with 1008 atoms

100.1% CPU use with 12 MPI tasks x no OpenMP threads

Minimization stats:
  Stopping criterion = linesearch alpha is zero
  Energy initial, next-to-last, final = 
        -18273.4442518     -18273.4442669     -18273.4442669
  Force two-norm initial, final = 0.00482173 0.00283997
  Force max component initial, final = 0.000345026 0.000646683
  Final line search alpha, max atom move = 0.000976562 6.31526e-07
  Iterations, force evaluations = 3 27

MPI task timing breakdown:
Section |  min time  |  avg time  |  max time  |%varavg| %total
---------------------------------------------------------------
Pair    | 0.028271   | 0.031431   | 0.0336     |   0.9 | 36.24
Kspace  | 0.047005   | 0.04869    | 0.050111   |   0.4 | 56.14
Neigh   | 0          | 0          | 0          |   0.0 |  0.00
Comm    | 0.0047948  | 0.0057387  | 0.0077953  |   1.0 |  6.62
Output  | 0          | 0          | 0          |   0.0 |  0.00
Modify  | 0          | 0          | 0          |   0.0 |  0.00
Other   |            | 0.0008689  |            |       |  1.00

Nlocal:    84 ave 86 max 78 min
Histogram: 1 0 0 0 0 1 2 2 2 4
Nghost:    2614.17 ave 2635 max 2590 min
Histogram: 2 0 1 1 1 1 3 1 0 2
Neighs:    18630.7 ave 19166 max 17206 min
Histogram: 1 0 0 0 0 1 3 2 1 4

Total # of neighbors = 223568
Ave neighs/atom = 221.794
Neighbor list builds = 0
Dangerous builds = 0
  triclinic box = (0 0 0) to (23.3007 23.3007 23.3007) with tilt (0 0 0.038842)
WARNING: Resetting reneighboring criteria during minimization (../min.cpp:168)
Ewald initialization ...
  G vector (1/distance) = 0.365055
  estimated absolute RMS force accuracy = 1.94166e-05
  estimated relative force accuracy = 1.34841e-06
  KSpace vectors: actual max1d max3d = 2082 10 4630
                  kxmax kymax kzmax  = 10 10 10
Memory usage per processor = 4.56136 Mbytes
Step Temp E_pair E_mol TotEng Press 
     966           10   -18273.326            0   -18272.024   -5910.3383 
     969           10    -18273.33            0   -18272.029   -5940.7325 
Loop time of 0.154604 on 12 procs for 3 steps with 1008 atoms

100.0% CPU use with 12 MPI tasks x no OpenMP threads

Minimization stats:
  Stopping criterion = linesearch alpha is zero
  Energy initial, next-to-last, final = 
        -18273.3260831      -18273.330373      -18273.330373
  Force two-norm initial, final = 0.418315 0.199437
  Force max component initial, final = 0.0406851 0.0241963
  Final line search alpha, max atom move = 2.38419e-07 5.76885e-09
  Iterations, force evaluations = 3 49

MPI task timing breakdown:
Section |  min time  |  avg time  |  max time  |%varavg| %total
---------------------------------------------------------------
Pair    | 0.050326   | 0.056487   | 0.060207   |   1.2 | 36.54
Kspace  | 0.083139   | 0.086612   | 0.089567   |   0.6 | 56.02
Neigh   | 0          | 0          | 0          |   0.0 |  0.00
Comm    | 0.0080187  | 0.0099477  | 0.013585   |   1.5 |  6.43
Output  | 0          | 0          | 0          |   0.0 |  0.00
Modify  | 0          | 0          | 0          |   0.0 |  0.00
Other   |            | 0.001557   |            |       |  1.01

Nlocal:    84 ave 86 max 78 min
Histogram: 1 0 0 0 0 1 2 2 2 4
Nghost:    2614.17 ave 2635 max 2590 min
Histogram: 2 0 1 1 1 1 3 1 0 2
Neighs:    18630 ave 19167 max 17203 min
Histogram: 1 0 0 0 0 1 3 2 1 4

Total # of neighbors = 223560
Ave neighs/atom = 221.786
Neighbor list builds = 0
Dangerous builds = 0
  triclinic box = (0 0 0) to (23.3007 23.3007 23.3007) with tilt (0 0 0.077661)
WARNING: Resetting reneighboring criteria during minimization (../min.cpp:168)
Ewald initialization ...
  G vector (1/distance) = 0.365055
  estimated absolute RMS force accuracy = 1.94166e-05
  estimated relative force accuracy = 1.34841e-06
  KSpace vectors: actual max1d max3d = 2081 10 4630
                  kxmax kymax kzmax  = 10 10 10
Memory usage per processor = 4.56136 Mbytes
Step Temp E_pair E_mol TotEng Press 
     969           10    -18273.18            0   -18271.878   -5895.1331 
     982           10   -18273.207            0   -18271.906   -6038.3714 
Loop time of 0.210135 on 12 procs for 13 steps with 1008 atoms

99.9% CPU use with 12 MPI tasks x no OpenMP threads

Minimization stats:
  Stopping criterion = linesearch alpha is zero
  Energy initial, next-to-last, final = 
        -18273.1800282     -18273.2074868     -18273.2074868
  Force two-norm initial, final = 0.836574 0.12866
  Force max component initial, final = 0.0813359 0.0108154
  Final line search alpha, max atom move = 4.76837e-07 5.15719e-09
  Iterations, force evaluations = 13 69

MPI task timing breakdown:
Section |  min time  |  avg time  |  max time  |%varavg| %total
---------------------------------------------------------------
Pair    | 0.06938    | 0.077019   | 0.083148   |   1.4 | 36.65
Kspace  | 0.11337    | 0.11785    | 0.12086    |   0.6 | 56.08
Neigh   | 0          | 0          | 0          |   0.0 |  0.00
Comm    | 0.011149   | 0.013224   | 0.01858    |   1.7 |  6.29
Output  | 0          | 0          | 0          |   0.0 |  0.00
Modify  | 0          | 0          | 0          |   0.0 |  0.00
Other   |            | 0.002039   |            |       |  0.97

Nlocal:    84 ave 86 max 78 min
Histogram: 1 0 0 0 0 1 2 2 2 4
Nghost:    2614.17 ave 2635 max 2590 min
Histogram: 2 0 1 1 1 1 3 1 0 2
Neighs:    18631.3 ave 19177 max 17203 min
Histogram: 1 0 0 0 0 1 3 2 1 4

Total # of neighbors = 223576
Ave neighs/atom = 221.802
Neighbor list builds = 0
Dangerous builds = 0
  triclinic box = (0 0 0) to (23.3007 23.3007 23.3007) with tilt (0 0 0.116503)
WARNING: Resetting reneighboring criteria during minimization (../min.cpp:168)
Ewald initialization ...
  G vector (1/distance) = 0.365055
  estimated absolute RMS force accuracy = 1.94166e-05
  estimated relative force accuracy = 1.34841e-06
  KSpace vectors: actual max1d max3d = 2079 10 4630
                  kxmax kymax kzmax  = 10 10 10
Memory usage per processor = 4.56136 Mbytes
Step Temp E_pair E_mol TotEng Press 
     982           10   -18273.005            0   -18271.704   -5875.1975 
    1000           10   -18273.074            0   -18271.772    -6097.426 
    1002           10   -18273.074            0   -18271.772   -6099.4659 
Loop time of 0.253929 on 12 procs for 20 steps with 1008 atoms

99.8% CPU use with 12 MPI tasks x no OpenMP threads

Minimization stats:
  Stopping criterion = linesearch alpha is zero
  Energy initial, next-to-last, final = 
        -18273.0054197     -18273.0740756     -18273.0740756
  Force two-norm initial, final = 1.2552 0.128208
  Force max component initial, final = 0.12205 0.0124957
  Final line search alpha, max atom move = 4.76837e-07 5.9584e-09
  Iterations, force evaluations = 20 81

MPI task timing breakdown:
Section |  min time  |  avg time  |  max time  |%varavg| %total
---------------------------------------------------------------
Pair    | 0.083036   | 0.091844   | 0.098926   |   1.4 | 36.17
Kspace  | 0.13639    | 0.14214    | 0.14627    |   0.7 | 55.98
Neigh   | 0          | 0          | 0          |   0.0 |  0.00
Comm    | 0.014391   | 0.016971   | 0.022619   |   1.7 |  6.68
Output  | 5.3883e-05 | 5.6783e-05 | 7.1049e-05 |   0.1 |  0.02
Modify  | 0          | 0          | 0          |   0.0 |  0.00
Other   |            | 0.002918   |            |       |  1.15

Nlocal:    84 ave 86 max 78 min
Histogram: 1 0 0 0 0 1 2 2 2 4
Nghost:    2614.17 ave 2635 max 2590 min
Histogram: 2 0 1 1 1 1 3 1 0 2
Neighs:    18631.8 ave 19179 max 17201 min
Histogram: 1 0 0 0 0 1 3 2 1 4

Total # of neighbors = 223581
Ave neighs/atom = 221.807
Neighbor list builds = 0
Dangerous builds = 0
Total wall time: 0:00:18
