 CELL_PARAMETERS

1008 atoms
3 atom types

0.0 23.3006801605 xlo xhi
0.0 23.3006801605 ylo yhi
0.0 23.3006801605 zlo zhi
0.0 0.0 0.0 xy xz yz 

Masses

1 180.95000
2 15.99940
3 91.22000

Atoms # charge

1 1 3.0 4.398724079132080 -7.022495269775391 -7.979614257812500 
2 1 3.0 0.141993403434753 6.147457122802734 -1.352258920669556 
3 1 3.0 -11.006422042846680 5.577888488769531 -3.392473459243774 
4 1 3.0 -1.370226860046387 3.156129121780396 -1.445326209068298 
5 1 3.0 5.971500873565674 -11.650211334228516 -11.547725677490234 
6 1 3.0 0.613298296928406 -2.864254474639893 9.953943252563477 
7 1 3.0 8.045722961425781 0.176504209637642 -3.371070861816406 
8 1 3.0 -4.087197303771973 -1.048249244689941 -4.665138721466064 
9 1 3.0 -9.702316284179688 10.357024192810059 -1.694001078605652 
10 1 3.0 5.092396259307861 -0.347209930419922 -9.627024650573730 
11 1 3.0 9.657286643981934 2.033880233764648 7.053295612335205 
12 1 3.0 9.057668685913086 -2.676996707916260 4.533812046051025 
13 1 3.0 0.765741407871246 3.420284986495972 9.545541763305664 
14 1 3.0 -6.768752574920654 4.517844200134277 -1.311807990074158 
15 1 3.0 -5.184763908386230 -3.880976438522339 5.512107372283936 
16 1 3.0 3.207898616790771 -9.102041244506836 4.366534233093262 
17 1 3.0 -10.389747619628906 3.634757757186890 5.745175838470459 
18 1 3.0 -9.551511764526367 2.279245615005493 -2.405724048614502 
19 1 3.0 -0.667807757854462 -1.304832458496094 5.081630706787109 
20 1 3.0 -10.201825141906738 -2.553924322128296 8.353686332702637 
21 1 3.0 11.063056945800781 -5.874098777770996 5.391032695770264 
22 1 3.0 -0.053779881447554 -7.047767639160156 -3.196892976760864 
23 1 3.0 -5.735718727111816 -7.047061920166016 7.510186672210693 
24 1 3.0 7.782858848571777 4.681598186492920 8.930663108825684 
25 1 3.0 7.025321006774902 -2.742032766342163 9.515262603759766 
26 1 3.0 -5.624553680419922 6.844227313995361 6.835169792175293 
27 1 3.0 8.209139823913574 -10.755479812622070 2.290932416915894 
28 1 3.0 0.454645127058029 10.297862052917480 5.911025047302246 
29 1 3.0 -3.164365768432617 -10.886667251586914 -4.609868049621582 
30 1 3.0 -6.095808982849121 3.013223171234131 -7.557714939117432 
31 1 3.0 -1.417735815048218 5.274218082427979 -7.463849067687988 
32 1 3.0 -11.602200508117676 6.860610008239746 6.211128234863281 
33 1 3.0 4.707041263580322 6.092897415161133 1.397251129150391 
34 1 3.0 2.211793422698975 3.423137187957764 -0.019193138927221 
35 1 3.0 0.460435599088669 -1.457427501678467 -5.551196575164795 
36 1 3.0 -10.649076461791992 -11.353837966918945 10.166620254516602 
37 1 3.0 -11.583386421203613 -0.581024706363678 5.516567230224609 
38 1 3.0 -4.770733833312988 1.460808038711548 -1.390033721923828 
39 1 3.0 4.560270309448242 -4.010808944702148 -6.066551208496094 
40 1 3.0 -7.196922302246094 -4.543042182922363 2.513257026672363 
41 1 3.0 -3.453058481216431 -7.126242637634277 -5.073949813842773 
42 1 3.0 3.230940103530884 -10.355415344238281 -9.853160858154297 
43 1 3.0 -8.552831649780273 5.338652610778809 -9.151371002197266 
44 1 3.0 -2.419103384017944 -8.999262809753418 -1.446091175079346 
45 1 3.0 -8.426676750183105 10.714142799377441 7.702813625335693 
46 1 3.0 0.661212265491486 9.079862594604492 9.465732574462891 
47 1 3.0 7.364954471588135 -9.105977058410645 -4.477365493774414 
48 1 3.0 4.991156101226807 -9.155157089233398 8.840873718261719 
49 1 3.0 3.566921234130859 11.483520507812500 -5.866591930389404 
50 1 3.0 -10.769030570983887 -5.575942993164062 2.266167163848877 
51 1 3.0 -5.872526645660400 11.040134429931641 5.350139141082764 
52 1 3.0 -10.983963966369629 -0.501976072788239 -0.879804909229279 
53 1 3.0 -1.981019139289856 1.006445765495300 0.996712923049927 
54 1 3.0 -1.437545180320740 -0.613608956336975 -2.222412109375000 
55 1 3.0 3.657305240631104 -4.532278060913086 9.895591735839844 
56 1 3.0 2.964036464691162 8.329485893249512 -4.202165603637695 
57 1 3.0 6.877410888671875 -5.776308536529541 -10.443015098571777 
58 1 3.0 3.854091405868530 5.537806510925293 -1.922034502029419 
59 1 3.0 3.714903593063354 9.288949966430664 -9.027957916259766 
60 1 3.0 0.547508180141449 5.436001777648926 2.801123142242432 
61 1 3.0 2.490352869033813 0.978091359138489 -7.581429004669189 
62 1 3.0 8.512594223022461 7.543133258819580 -6.076135158538818 
63 1 3.0 -1.807920813560486 -5.490826129913330 -0.161205723881721 
64 1 3.0 -5.035436153411865 -6.676643848419189 1.000201463699341 
65 1 3.0 8.778099060058594 6.128560066223145 -2.811352729797363 
66 1 3.0 0.090753562748432 -3.548609733581543 -8.769516944885254 
67 1 3.0 5.391947269439697 -3.747514963150024 1.880812406539917 
68 1 3.0 9.454559326171875 7.295401096343994 10.873287200927734 
69 1 3.0 -11.491792678833008 -9.628516197204590 -2.378634929656982 
70 1 3.0 -6.716408252716064 -3.157863616943359 -6.104964256286621 
71 1 3.0 -1.040781855583191 9.802403450012207 -6.010189056396484 
72 1 3.0 3.943254470825195 1.315004706382751 2.503899574279785 
73 1 3.0 -7.464402198791504 0.444487035274506 -5.031592369079590 
74 1 3.0 -3.572808980941772 4.681859016418457 -10.230381965637207 
75 1 3.0 -10.527746200561523 -6.067985534667969 10.908964157104492 
76 1 3.0 3.814885139465332 10.485654830932617 3.674052715301514 
77 1 3.0 3.262796401977539 10.293395996093750 -1.577922701835632 
78 1 3.0 10.827889442443848 11.269014358520508 0.160298943519592 
79 1 3.0 4.005700111389160 -9.629388809204102 -2.945376157760620 
80 1 3.0 10.093866348266602 0.609912693500519 -9.636197090148926 
81 1 3.0 -10.098748207092285 0.994166493415833 8.522965431213379 
82 1 3.0 1.719480156898499 -6.315408706665039 0.249786779284477 
83 1 3.0 -2.527958869934082 9.477699279785156 0.397603482007980 
84 1 3.0 0.834914565086365 -0.663866937160492 -10.502228736877441 
85 1 3.0 -7.869516372680664 -3.139921903610229 10.894070625305176 
86 1 3.0 -8.402485847473145 9.548772811889648 1.701014161109924 
87 1 3.0 7.686349391937256 8.167340278625488 7.967817783355713 
88 1 3.0 -2.764081478118896 1.836197614669800 -6.557964801788330 
89 1 3.0 -2.957993030548096 5.401764392852783 4.685349941253662 
90 1 3.0 9.710552215576172 -4.244708061218262 -8.545135498046875 
91 1 3.0 3.547881603240967 11.487639427185059 6.903616428375244 
92 1 3.0 3.605782747268677 1.751400589942932 -3.069037675857544 
93 1 3.0 -7.154335975646973 8.068319320678711 10.108170509338379 
94 1 3.0 -8.716689109802246 7.925917625427246 5.051375389099121 
95 1 3.0 -9.076082229614258 10.124877929687500 -10.445768356323242 
96 1 3.0 5.753710746765137 4.662998199462891 -9.723156929016113 
97 1 3.0 -1.989219546318054 -9.623935699462891 9.463438034057617 
98 1 3.0 10.608260154724121 -7.372468948364258 -0.005135005339980 
99 1 3.0 0.304622799158096 -6.695782661437988 10.441427230834961 
100 1 3.0 -7.073288440704346 8.168140411376953 -2.078236579895020 
101 1 3.0 4.198765754699707 -0.907488167285919 5.567111968994141 
102 1 3.0 6.481276035308838 1.900137424468994 11.041562080383301 
103 1 3.0 0.770334243774414 -10.014530181884766 7.203812599182129 
104 1 3.0 -10.263966560363770 0.941785693168640 -11.166496276855469 
105 1 3.0 7.261505126953125 11.094249725341797 -5.575077056884766 
106 1 3.0 -9.635252952575684 -1.839477539062500 -4.165226936340332 
107 1 3.0 -5.176205158233643 -4.788542747497559 10.444797515869141 
108 1 3.0 -1.593836188316345 6.318505764007568 -4.372366428375244 
109 1 3.0 -10.667113304138184 8.050367355346680 -8.208528518676758 
110 1 3.0 -1.333184957504272 6.430739879608154 10.747505187988281 
111 1 3.0 -1.806514382362366 7.975162506103516 -9.293107986450195 
112 1 3.0 7.544847011566162 -7.526245117187500 3.986854076385498 
113 1 3.0 11.160484313964844 0.547082841396332 -4.792103767395020 
114 1 3.0 11.388988494873047 9.049620628356934 -4.539115905761719 
115 1 3.0 6.754727840423584 3.588359117507935 -3.307374477386475 
116 1 3.0 -7.928865909576416 -7.598925113677979 4.286091804504395 
117 1 3.0 -2.337009906768799 -3.701199293136597 8.042923927307129 
118 1 3.0 -2.935742139816284 9.145143508911133 6.475980758666992 
119 1 3.0 3.670041084289551 -7.299433708190918 -11.517580032348633 
120 1 3.0 11.137872695922852 9.591284751892090 8.620552062988281 
121 1 3.0 9.815123558044434 4.096240520477295 -5.757815837860107 
122 1 3.0 -6.640847682952881 11.438322067260742 -4.068099975585938 
123 1 3.0 11.477758407592773 4.213867187500000 8.963447570800781 
124 1 3.0 7.639964103698730 -11.542851448059082 8.616076469421387 
125 1 3.0 -7.132224559783936 0.515983462333679 11.074311256408691 
126 1 3.0 -9.767688751220703 1.480084180831909 2.971085071563721 
127 1 3.0 -10.685807228088379 2.683413505554199 -7.666361331939697 
128 1 3.0 -3.149348735809326 0.174293443560600 7.387433052062988 
129 1 3.0 2.283353328704834 -6.847149372100830 7.227144241333008 
130 1 3.0 -3.727023124694824 -4.347033500671387 -7.579826831817627 
131 1 3.0 -3.644317865371704 6.408321857452393 -1.465914368629456 
132 1 3.0 4.923372745513916 -7.679446697235107 1.312878727912903 
133 1 3.0 -5.600634098052979 7.647814273834229 -9.576246261596680 
134 1 3.0 -7.871080875396729 0.270901471376419 -8.588668823242188 
135 1 3.0 7.204476356506348 9.508376121520996 -8.960626602172852 
136 1 3.0 -8.248945236206055 -8.862065315246582 8.966171264648438 
137 1 3.0 -1.656491518020630 -3.929057836532593 -3.711282491683960 
138 1 3.0 -7.185631275177002 -0.803110599517822 1.552767038345337 
139 1 3.0 -5.267033100128174 -10.822360992431641 8.311036109924316 
140 1 3.0 -4.254844665527344 3.673593759536743 -3.724301815032959 
141 1 3.0 8.508824348449707 -9.039605140686035 -10.678391456604004 
142 1 3.0 1.705972194671631 8.376548767089844 1.241962313652039 
143 1 3.0 0.356646835803986 1.899798989295959 3.784382343292236 
144 1 3.0 8.783264160156250 11.063429832458496 -2.437983512878418 
145 1 3.0 7.351480960845947 -9.103915214538574 -0.886578559875488 
146 1 3.0 -11.344908714294434 -2.649914264678955 -11.290681838989258 
147 1 3.0 -1.974963665008545 1.283711194992065 10.374490737915039 
148 1 3.0 5.724322319030762 0.954271316528320 -0.473453283309937 
149 1 3.0 -4.902502536773682 -5.004004955291748 -2.306141614913940 
150 1 3.0 6.510306835174561 -2.290677070617676 -1.399535775184631 
151 1 3.0 9.515789031982422 10.837286949157715 -11.446811676025391 
152 1 3.0 0.975009262561798 -2.983122110366821 -1.219521045684814 
153 1 3.0 -1.262703299522400 -2.698423385620117 2.011785984039307 
154 1 3.0 5.105083465576172 6.951253414154053 -6.834810733795166 
155 1 3.0 9.377443313598633 -1.474788069725037 0.812683105468750 
156 1 3.0 -6.433823585510254 2.922883749008179 1.721618652343750 
157 1 3.0 5.974702835083008 1.815411090850830 7.404386520385742 
158 1 3.0 9.638028144836426 -0.179974570870399 10.248101234436035 
159 1 3.0 -7.625686645507812 6.082813262939453 2.071664094924927 
160 1 3.0 -3.785611152648926 4.376303672790527 9.099364280700684 
161 1 3.0 -6.673689842224121 0.582817077636719 4.922123432159424 
162 1 3.0 -3.654237985610962 9.349785804748535 9.945253372192383 
163 1 3.0 11.588580131530762 -7.262874603271484 -9.292717933654785 
164 1 3.0 -2.240320205688477 -5.774110317230225 -10.651060104370117 
165 1 3.0 7.756727695465088 4.105899810791016 0.192707553505898 
166 1 3.0 -7.414366722106934 10.435548782348633 -7.242250442504883 
167 1 3.0 -5.684701442718506 -8.481022834777832 -2.971942663192749 
168 1 3.0 8.147089004516602 -2.385269880294800 -10.277927398681641 
169 1 3.0 1.782904267311096 -8.976818084716797 -6.014867782592773 
170 1 3.0 -0.304491192102432 9.656960487365723 -2.513345956802368 
171 1 3.0 6.976145267486572 -5.944750308990479 9.008670806884766 
172 1 3.0 -8.505637168884277 7.330633163452148 -5.575861454010010 
173 1 3.0 3.569645643234253 -2.080026626586914 -3.545367240905762 
174 1 3.0 3.109501600265503 -5.721375465393066 3.804437875747681 
175 1 3.0 -11.173543930053711 -9.353718757629395 6.936833858489990 
176 1 3.0 -4.948190689086914 6.242911815643311 -6.189845085144043 
177 1 3.0 8.961081504821777 -4.908800125122070 1.793861746788025 
178 1 3.0 5.160923957824707 4.016018390655518 4.587902069091797 
179 1 3.0 6.166610717773438 -10.238020896911621 -8.004411697387695 
180 1 3.0 -11.206187248229980 4.502053737640381 -10.999392509460449 
181 1 3.0 -10.930666923522949 -1.849285364151001 -7.779721260070801 
182 1 3.0 2.378891229629517 -9.788526535034180 0.249850243330002 
183 1 3.0 4.051708221435547 7.972851276397705 8.024814605712891 
184 1 3.0 -4.015479564666748 -9.098229408264160 -10.770503044128418 
185 1 3.0 -7.293810367584229 -7.187405109405518 -10.921410560607910 
186 1 3.0 0.352145552635193 1.701197028160095 -4.498754501342773 
187 1 3.0 -5.138595581054688 -1.930784940719604 -10.173076629638672 
188 1 3.0 9.369265556335449 8.266584396362305 0.152782022953033 
189 1 3.0 9.381979942321777 6.092165946960449 -8.860199928283691 
190 1 3.0 2.468649625778198 -10.832880020141602 10.258536338806152 
191 1 3.0 -6.663692474365234 4.376164913177490 11.152177810668945 
192 1 3.0 10.437190055847168 10.672729492187500 -7.344555377960205 
193 1 3.0 -0.226548105478287 11.422316551208496 2.010084152221680 
194 1 3.0 2.392273426055908 6.994016647338867 -11.259567260742188 
195 1 3.0 -9.007876396179199 -8.279241561889648 -4.413225650787354 
196 1 3.0 5.862046241760254 -4.484298229217529 5.606316566467285 
197 1 3.0 -8.566740036010742 -4.821483612060547 -3.311180830001831 
198 1 3.0 7.523835659027100 2.078432559967041 -8.090624809265137 
199 1 3.0 8.873891830444336 -1.243218779563904 -6.709020614624023 
200 1 3.0 10.787701606750488 -3.899289369583130 -1.242325901985168 
201 1 3.0 -9.471747398376465 -11.002186775207520 4.385401248931885 
202 1 3.0 3.803996086120605 -3.844301939010620 -9.754930496215820 
203 1 3.0 8.629948616027832 2.913661479949951 3.666011333465576 
204 1 3.0 -8.442457199096680 -6.991156578063965 -0.267896205186844 
205 1 3.0 -6.810695648193359 2.446697711944580 8.167153358459473 
206 1 3.0 10.385072708129883 5.772517681121826 2.067731857299805 
207 1 3.0 -6.638101577758789 -6.443640708923340 -7.225032329559326 
208 1 3.0 -2.586192369461060 -10.614214897155762 -8.190497398376465 
209 1 3.0 0.042617820203304 -8.309141159057617 2.742435455322266 
210 1 3.0 5.449328899383545 -0.362465769052505 -6.003605842590332 
211 1 3.0 5.820532798767090 7.860723972320557 11.354660987854004 
212 1 3.0 -4.008456707000732 -1.072006940841675 3.252412080764771 
213 1 3.0 2.438620328903198 5.821431159973145 6.114346504211426 
214 1 3.0 6.323029041290283 -10.459155082702637 5.421512603759766 
215 1 3.0 -1.478427767753601 11.007513046264648 -11.293326377868652 
216 1 3.0 6.737146854400635 9.224988937377930 1.940454602241516 
217 1 3.0 -2.173118591308594 -0.998710989952087 -8.087397575378418 
218 1 3.0 4.682657718658447 3.272153139114380 -6.243490695953369 
219 1 3.0 7.235181808471680 -6.078778266906738 -6.511392116546631 
220 1 3.0 -6.494828701019287 -1.279490947723389 7.934864997863770 
221 1 3.0 -0.919342160224915 8.258230209350586 3.663173675537109 
222 1 3.0 -1.997861146926880 -7.142162322998047 6.892365455627441 
223 2 -1.2 -5.157300949096680 -1.376123189926147 1.439615845680237 
224 2 -1.2 -9.100497245788574 8.510789871215820 -1.484903216362000 
225 2 -1.2 10.377758026123047 9.675990104675293 4.613856315612793 
226 2 -1.2 6.518898487091064 2.682210922241211 -0.310017496347427 
227 2 -1.2 -4.335233211517334 -8.378211975097656 1.362122058868408 
228 2 -1.2 9.238055229187012 -2.769753932952881 -5.410815715789795 
229 2 -1.2 9.232601165771484 -8.812188148498535 -5.260517597198486 
230 2 -1.2 -8.156009674072266 7.707953453063965 1.000597953796387 
231 2 -1.2 -6.176795005798340 9.634798049926758 -3.314963102340698 
232 2 -1.2 10.919123649597168 10.937159538269043 10.168803215026855 
233 2 -1.2 -5.912538528442383 2.821413516998291 -0.523785114288330 
234 2 -1.2 6.783247947692871 -10.765604019165039 3.611946344375610 
235 2 -1.2 7.216536521911621 -4.260619640350342 -2.207303285598755 
236 2 -1.2 10.664133071899414 -5.847393035888672 -1.264412879943848 
237 2 -1.2 9.075030326843262 10.069146156311035 -8.576579093933105 
238 2 -1.2 -5.284324645996094 -10.645853996276855 -10.883128166198730 
239 2 -1.2 11.037295341491699 -3.567509412765503 -7.344049453735352 
240 2 -1.2 -3.668782234191895 8.379474639892578 -9.627003669738770 
241 2 -1.2 7.390507698059082 7.607042789459229 10.082376480102539 
242 2 -1.2 5.883025646209717 3.344559192657471 -7.959180355072021 
243 2 -1.2 -9.670708656311035 -11.269224166870117 -9.816635131835938 
244 2 -1.2 -2.748559474945068 8.671033859252930 4.432951450347900 
245 2 -1.2 -1.260595798492432 9.718463897705078 -9.871168136596680 
246 2 -1.2 4.295464992523193 -10.634407043457031 -7.294167041778564 
247 2 -1.2 6.331793785095215 -5.974261283874512 -8.455347061157227 
248 2 -1.2 9.370578765869141 10.070197105407715 -0.759041488170624 
249 2 -1.2 -6.091471672058105 -8.925158500671387 8.320805549621582 
250 2 -1.2 -6.958442687988281 -11.029939651489258 -7.960443973541260 
251 2 -1.2 -3.905042171478271 10.318270683288574 -0.936821699142456 
252 2 -1.2 -11.469395637512207 -10.028128623962402 11.375223159790039 
253 2 -1.2 2.097081422805786 4.159579277038574 8.146109580993652 
254 2 -1.2 -9.282820701599121 1.638582706451416 -8.472770690917969 
255 2 -1.2 -11.422570228576660 7.499491214752197 -3.584118127822876 
256 2 -1.2 -6.881865501403809 10.661745071411133 1.841052293777466 
257 2 -1.2 10.964735984802246 0.792237222194672 -0.629518508911133 
258 2 -1.2 10.397778511047363 2.608189105987549 -4.493362426757812 
259 2 -1.2 11.546962738037109 8.493079185485840 7.165536403656006 
260 2 -1.2 11.150133132934570 10.898787498474121 -10.408841133117676 
261 2 -1.2 4.589346885681152 -3.549301385879517 -7.967447280883789 
262 2 -1.2 4.767510890960693 5.728689193725586 3.470438480377197 
263 2 -1.2 -0.491865247488022 -8.756464958190918 -2.070486307144165 
264 2 -1.2 -3.843243598937988 -5.192237854003906 -11.476240158081055 
265 2 -1.2 -3.723432064056396 0.893549382686615 0.063291922211647 
266 2 -1.2 -3.496082305908203 -3.894884586334229 6.577734470367432 
267 2 -1.2 -2.188808441162109 -10.515900611877441 -2.741496801376343 
268 2 -1.2 -4.469981670379639 8.203087806701660 -5.244028568267822 
269 2 -1.2 9.437052726745605 7.338132858276367 -1.491492748260498 
270 2 -1.2 -9.890406608581543 10.651232719421387 11.257913589477539 
271 2 -1.2 -7.891460418701172 -9.065349578857422 -10.151317596435547 
272 2 -1.2 3.376668214797974 -4.691317081451416 -11.503164291381836 
273 2 -1.2 -8.903002738952637 -6.017424583435059 -1.836930632591248 
274 2 -1.2 10.317867279052734 -3.125353097915649 -10.170495986938477 
275 2 -1.2 -8.956033706665039 -0.102401770651340 2.058490753173828 
276 2 -1.2 5.424654483795166 -0.968883454799652 -0.456018477678299 
277 2 -1.2 7.761195659637451 4.690649986267090 -1.727087736129761 
278 2 -1.2 -3.356878280639648 -0.236651688814163 -6.310762882232666 
279 2 -1.2 7.330598354339600 8.521588325500488 -0.108562268316746 
280 2 -1.2 -4.623909473419189 -11.021429061889648 1.443030595779419 
281 2 -1.2 2.506563425064087 -9.502534866333008 -1.611868739128113 
282 2 -1.2 -10.359726905822754 -3.767837762832642 -3.732575416564941 
283 2 -1.2 -9.621836662292480 -8.318270683288574 7.544702053070068 
284 2 -1.2 -8.376914024353027 1.237989902496338 4.294950008392334 
285 2 -1.2 8.958966255187988 2.236340522766113 -9.716032028198242 
286 2 -1.2 7.864597797393799 -2.711106061935425 11.226199150085449 
287 2 -1.2 -2.068340301513672 -1.642386674880981 3.628980875015259 
288 2 -1.2 9.401143074035645 2.968040704727173 -0.503268003463745 
289 2 -1.2 -6.818341732025146 6.304111003875732 10.922621726989746 
290 2 -1.2 -8.766718864440918 9.362133979797363 6.442471981048584 
291 2 -1.2 11.054602622985840 7.045368671417236 -8.560842514038086 
292 2 -1.2 2.063194751739502 5.965735435485840 -1.392459034919739 
293 2 -1.2 -8.076683998107910 -3.324615478515625 -4.650899887084961 
294 2 -1.2 -3.140782594680786 0.685803592205048 2.634538650512695 
295 2 -1.2 -10.417176246643066 -6.038770198822021 -8.528609275817871 
296 2 -1.2 -4.419463157653809 6.523973464965820 5.281362056732178 
297 2 -1.2 3.562679767608643 -5.825926780700684 -9.129522323608398 
298 2 -1.2 -1.131839394569397 11.525365829467773 -7.569158554077148 
299 2 -1.2 -8.766414642333984 -10.185273170471191 -4.331646442413330 
300 2 -1.2 -2.131120204925537 7.373620510101318 6.609558105468750 
301 2 -1.2 1.584492325782776 -10.955872535705566 -6.565453529357910 
302 2 -1.2 -8.255839347839355 1.887371063232422 -3.856717824935913 
303 2 -1.2 -7.390211105346680 -6.196079730987549 -9.217246055603027 
304 2 -1.2 -6.805022239685059 -3.934547901153564 9.572830200195312 
305 2 -1.2 -1.922712683677673 1.016291618347168 -8.218756675720215 
306 2 -1.2 -2.023254632949829 -9.704913139343262 0.222917348146439 
307 2 -1.2 -2.605206012725830 3.864006280899048 3.474483013153076 
308 2 -1.2 2.939185619354248 -0.191532775759697 1.570945143699646 
309 2 -1.2 1.661884784698486 -4.049679756164551 -2.795532464981079 
310 2 -1.2 -9.220622062683105 -3.996420383453369 7.146155834197998 
311 2 -1.2 7.711805820465088 -11.519321441650391 6.309097766876221 
312 2 -1.2 -4.789985179901123 -2.874245405197144 -6.388396263122559 
313 2 -1.2 5.883159160614014 7.856858730316162 7.141417980194092 
314 2 -1.2 1.495918154716492 -6.289100646972656 -4.383293151855469 
315 2 -1.2 3.921374082565308 3.988578557968140 -9.922603607177734 
316 2 -1.2 0.195854008197784 8.562350273132324 5.190022945404053 
317 2 -1.2 1.090105056762695 -10.846504211425781 1.129769802093506 
318 2 -1.2 -7.542875289916992 -3.577418565750122 -7.775315284729004 
319 2 -1.2 6.092521667480469 -10.819134712219238 9.704812049865723 
320 2 -1.2 -11.077535629272461 -11.061753273010254 0.911762118339539 
321 2 -1.2 -3.345047950744629 -4.631076335906982 -3.282274246215820 
322 2 -1.2 1.669317126274109 7.523169040679932 -5.436657428741455 
323 2 -1.2 -8.613503456115723 2.002758979797363 7.943375587463379 
324 2 -1.2 10.242602348327637 -8.687967300415039 -9.440166473388672 
325 2 -1.2 -5.359776973724365 -10.357519149780273 6.298361778259277 
326 2 -1.2 11.313211441040039 -0.830120921134949 -9.119854927062988 
327 2 -1.2 -10.699851036071777 -3.950250864028931 -0.832248151302338 
328 2 -1.2 -2.095057249069214 3.053238153457642 0.395671933889389 
329 2 -1.2 8.392716407775879 11.333732604980469 10.326697349548340 
330 2 -1.2 7.171011447906494 9.979752540588379 8.367480278015137 
331 2 -1.2 9.811831474304199 6.678857803344727 5.599764823913574 
332 2 -1.2 -7.028750896453857 -3.846792459487915 4.391994476318359 
333 2 -1.2 -2.371447324752808 -7.738787651062012 -6.489748954772949 
334 2 -1.2 -6.407723426818848 1.597073674201965 -9.021284103393555 
335 2 -1.2 3.037772417068481 6.270325660705566 -3.662488937377930 
336 2 -1.2 5.851362228393555 -3.582138061523438 -0.068716265261173 
337 2 -1.2 7.852473258972168 -10.891852378845215 -1.404037714004517 
338 2 -1.2 -1.321660280227661 -6.022950649261475 11.002829551696777 
339 2 -1.2 -9.548916816711426 0.843547761440277 -1.127764582633972 
340 2 -1.2 -9.092159271240234 -6.234843254089355 -4.506623744964600 
341 2 -1.2 7.282696723937988 9.919392585754395 -2.792244434356689 
342 2 -1.2 7.769959926605225 3.506233453750610 10.501891136169434 
343 2 -1.2 -11.235628128051758 5.247825145721436 5.242577075958252 
344 2 -1.2 8.350419044494629 7.653987884521484 -8.156543731689453 
345 2 -1.2 -4.946772575378418 4.695383071899414 -7.478432178497314 
346 2 -1.2 -11.125337600708008 3.053589105606079 -1.284474968910217 
347 2 -1.2 5.092011928558350 -2.641651630401611 5.381286144256592 
348 2 -1.2 10.430755615234375 4.884530544281006 -2.568251848220825 
349 2 -1.2 4.722174644470215 7.850292205810547 9.786803245544434 
350 2 -1.2 9.582302093505859 -10.867878913879395 0.993805229663849 
351 2 -1.2 -5.086696147918701 -7.621801853179932 -6.215749263763428 
352 2 -1.2 4.833965301513672 2.973747491836548 10.927897453308105 
353 2 -1.2 -5.782608985900879 -11.021896362304688 3.902173042297363 
354 2 -1.2 1.070456385612488 -5.522389888763428 6.367836952209473 
355 2 -1.2 3.669118642807007 -10.828131675720215 8.682312011718750 
356 2 -1.2 2.324645519256592 -5.776490211486816 2.025121688842773 
357 2 -1.2 2.985029220581055 -2.758544206619263 10.027627944946289 
358 2 -1.2 2.020039081573486 -1.962717294692993 -4.613433837890625 
359 2 -1.2 -4.292278289794922 -8.956429481506348 -1.706364274024963 
360 2 -1.2 10.153174400329590 1.968020558357239 3.085589170455933 
361 2 -1.2 -11.385372161865234 -5.946048736572266 7.171069145202637 
362 2 -1.2 3.268020153045654 -11.549600601196289 -0.162118256092072 
363 2 -1.2 8.797752380371094 -2.362723350524902 -8.331607818603516 
364 2 -1.2 -8.498062133789062 -3.829199552536011 -10.803833961486816 
365 2 -1.2 -9.494726181030273 6.735060214996338 6.589585304260254 
366 2 -1.2 -4.514570713043213 11.353835105895996 -3.815158128738403 
367 2 -1.2 -7.767218589782715 4.403813362121582 -10.683061599731445 
368 2 -1.2 -0.917114734649658 -5.434409141540527 -2.073107957839966 
369 2 -1.2 -0.264402568340302 -7.137751579284668 -9.812458038330078 
370 2 -1.2 -2.258245944976807 8.859696388244629 -7.456808567047119 
371 2 -1.2 -8.515882492065430 -5.820116996765137 -6.989897251129150 
372 2 -1.2 -4.083311080932617 -7.581366062164307 3.958436250686646 
373 2 -1.2 -2.702196836471558 -1.749467134475708 8.064964294433594 
374 2 -1.2 11.188532829284668 5.208672523498535 -4.939204216003418 
375 2 -1.2 -1.249390602111816 -3.198508977890015 9.591124534606934 
376 2 -1.2 -0.221190929412842 -6.283046722412109 0.572122454643250 
377 2 -1.2 4.563451290130615 -2.083134412765503 -5.454753398895264 
378 2 -1.2 10.142272949218750 -3.789885520935059 -3.073864698410034 
379 2 -1.2 6.928928375244141 -9.913066864013672 -11.326194763183594 
380 2 -1.2 -11.441067695617676 -8.033242225646973 5.524669647216797 
381 2 -1.2 -6.869174003601074 4.557860374450684 3.115300655364990 
382 2 -1.2 10.554486274719238 9.827484130859375 1.500704884529114 
383 2 -1.2 -5.526089191436768 -0.214437067508698 -1.705835103988647 
384 2 -1.2 -0.492601186037064 -8.578972816467285 11.017409324645996 
385 2 -1.2 -10.302249908447266 8.503125190734863 -10.099624633789062 
386 2 -1.2 -7.327993869781494 4.450240135192871 -3.122328042984009 
387 2 -1.2 -5.119576454162598 3.106352806091309 8.475074768066406 
388 2 -1.2 7.080509185791016 7.059564590454102 -2.796643018722534 
389 2 -1.2 -7.914381980895996 7.815295696258545 -3.809980154037476 
390 2 -1.2 4.140295982360840 9.889151573181152 7.622220039367676 
391 2 -1.2 -10.844040870666504 -0.687172710895538 8.928164482116699 
392 2 -1.2 1.852233767509460 5.541137695312500 -7.093194961547852 
393 2 -1.2 -7.154716968536377 -1.334674835205078 -6.092414855957031 
394 2 -1.2 4.812602996826172 0.159367978572845 3.941103935241699 
395 2 -1.2 -1.000934720039368 5.358129978179932 1.590535640716553 
396 2 -1.2 10.886261940002441 -1.830947279930115 4.208047389984131 
397 2 -1.2 -6.546378135681152 3.240365266799927 -5.710351943969727 
398 2 -1.2 -0.916740953922272 -0.933806419372559 -6.680283069610596 
399 2 -1.2 -3.399163007736206 -10.131213188171387 8.047323226928711 
400 2 -1.2 -0.503475964069366 7.067382812500000 -8.062536239624023 
401 2 -1.2 9.758680343627930 -4.154284477233887 3.431551456451416 
402 2 -1.2 -10.966168403625488 -4.583261966705322 4.873631954193115 
403 2 -1.2 -6.651369571685791 -5.099576950073242 -3.011466741561890 
404 2 -1.2 3.566704034805298 -3.247319459915161 1.827219963073730 
405 2 -1.2 -8.156781196594238 -4.974633693695068 0.553359389305115 
406 2 -1.2 3.093314409255981 0.670990347862244 6.288101196289062 
407 2 -1.2 5.664019584655762 -0.084927275776863 6.724361896514893 
408 2 -1.2 -10.203314781188965 -6.575728893280029 0.661353111267090 
409 2 -1.2 5.220129966735840 -5.747980594635010 1.147117018699646 
410 2 -1.2 5.621121883392334 -4.249450683593750 -10.481834411621094 
411 2 -1.2 1.332452416419983 -1.962962150573730 0.529779851436615 
412 2 -1.2 -0.841394424438477 -10.133852005004883 2.691280126571655 
413 2 -1.2 -5.006449699401855 7.483623027801514 -7.655352592468262 
414 2 -1.2 -7.477484703063965 -1.484199166297913 -0.280953347682953 
415 2 -1.2 3.878201723098755 -4.941255569458008 5.794781684875488 
416 2 -1.2 9.430180549621582 -1.927702546119690 6.348745346069336 
417 2 -1.2 8.289490699768066 -4.268752574920654 9.012255668640137 
418 2 -1.2 -6.218243122100830 -10.441905975341797 -5.369785785675049 
419 2 -1.2 -1.588508844375610 -0.578155934810638 10.651801109313965 
420 2 -1.2 3.465356826782227 7.668639183044434 -7.813288688659668 
421 2 -1.2 -10.528233528137207 0.692417442798615 6.663049697875977 
422 2 -1.2 9.243236541748047 7.195822715759277 -4.346983432769775 
423 2 -1.2 -2.025602340698242 4.603588581085205 6.211753845214844 
424 2 -1.2 4.166707992553711 -9.581697463989258 1.167073965072632 
425 2 -1.2 0.075001701712608 -10.983361244201660 5.648076057434082 
426 2 -1.2 -6.596809864044189 -0.637435913085938 3.406618595123291 
427 2 -1.2 8.030306816101074 -2.008588314056396 -0.353422164916992 
428 2 -1.2 -2.818230628967285 -1.540929675102234 -1.188677430152893 
429 2 -1.2 3.711653470993042 2.977617502212524 -4.544489860534668 
430 2 -1.2 1.556664228439331 -9.855345726013184 -8.859896659851074 
431 2 -1.2 -5.325385093688965 8.552107810974121 9.758790969848633 
432 2 -1.2 -11.029798507690430 -9.923927307128906 3.580444574356079 
433 2 -1.2 -10.670805931091309 8.029689788818359 4.723408222198486 
434 2 -1.2 6.186078071594238 -5.346513748168945 7.355140209197998 
435 2 -1.2 -1.707761883735657 -6.161111831665039 5.236671447753906 
436 2 -1.2 9.921647071838379 0.467106193304062 -2.980262756347656 
437 2 -1.2 -10.913296699523926 -3.689110755920410 1.947575211524963 
438 2 -1.2 -5.955388069152832 9.635128974914551 -8.640267372131348 
439 2 -1.2 -3.260131835937500 -10.230943679809570 4.201948642730713 
440 2 -1.2 -1.446936726570129 1.870400905609131 4.731379032135010 
441 2 -1.2 -6.790798187255859 -10.823322296142578 -0.036582022905350 
442 2 -1.2 1.393071532249451 8.115860939025879 11.026197433471680 
443 2 -1.2 -1.264461517333984 -9.231963157653809 -8.599193572998047 