LAMMPS (7 Dec 2015)
# Tantala heating to find melting temp. and glass transition temp.
# Intervals of 400 K (starting at 0 K) to be merged with the date from the even directory (also has intervals of 400 K starting at 200 K)
# Including rdf compute and initial velocity seed
# I've written a loop that makes melting/cooling simulation codes less tedious (In test directory input file)

# Initialization

units		metal
atom_style	charge
dimension	3
boundary	p p p

# Optional

neighbor	1.0 nsq
neigh_modify	every 1 delay 1 check yes

# Defining atomic system (896 atoms)

read_data	min1.dat
  triclinic box = (0 0 0) to (23.3007 23.3007 23.3007) with tilt (0 0 0)
  2 by 2 by 3 MPI processor grid
  reading atoms ...
  1008 atoms

# Potential

kspace_style	ewald 1.0e-6
#For low-temperature simulations, comment out the following line
#pair_style	hybrid/overlay lj246/cut 10 buck/coul/long 10 morse 10
#For low-temperature simulations, un-comment the following line
pair_style      hybrid/overlay buck/coul/long 10 morse 10

pair_coeff      1 2 buck/coul/long 100067.01 0.1319 6.05
pair_coeff      2 2 buck/coul/long 1388.773 0.3623188 175.0000
pair_coeff      1 1 buck/coul/long 0.00000000 1.0000000 0.000000
pair_coeff	2 3 buck/coul/long 17243.00 0.2265 128.35
pair_coeff      1 3 buck/coul/long 0.00000000 1.0000000 0.000000
pair_coeff      3 3 buck/coul/long 0.00000000 1.0000000 0.000000
pair_coeff 	1 2 morse 	   0.3789 1.6254 2.5445
#Remove these lines if running low-temperature simulation
#pair_coeff      1 2 lj246/cut	   0.01 0.51
#pair_coeff	2 2 lj246/cut 	   0.00035653 1.9000

# MD parameters

#1 fs timestep
timestep 0.001
thermo		50

fix		1 all nvt temp 10 10 0.1
velocity	all create 10 26684

load_tls min1.dump 1 0
  triclinic box = (0 0 0) to (23.3007 23.3007 23.3007) with tilt (0 0 0)
  1008 atoms before read
  1008 atoms in snapshot
  0 atoms purged
  1008 atoms replaced
  0 atoms trimmed
  0 atoms added
  1008 atoms after read
load_tls min2.dump 2 0
  triclinic box = (0 0 0) to (23.3007 23.3007 23.3007) with tilt (0 0 0)
  1008 atoms before read
  1008 atoms in snapshot
  0 atoms purged
  1008 atoms replaced
  0 atoms trimmed
  0 atoms added
  1008 atoms after read
couple_elastic 0.005 linear
  triclinic box = (0.0582517 0 0) to (23.2424 23.3007 23.3007) with tilt (0 0 0)
WARNING: Resetting reneighboring criteria during minimization (../min.cpp:168)
Ewald initialization ...
  G vector (1/distance) = 0.365089
  estimated absolute RMS force accuracy = 1.92191e-05
  estimated relative force accuracy = 1.33469e-06
  KSpace vectors: actual max1d max3d = 2088 10 4630
                  kxmax kymax kzmax  = 10 10 10
Neighbor list info ...
  2 neighbor list requests
  update every 1 steps, delay 0 steps, check yes
  max neighbors/atom: 2000, page size: 100000
  master list distance cutoff = 11
  ghost atom cutoff = 11
Memory usage per processor = 4.56189 Mbytes
Step Temp E_pair E_mol TotEng Press 
       0           10   -18273.909            0   -18272.607    2710.3396 
      24           10   -18274.067            0   -18272.766   -1022.3751 
Loop time of 0.254662 on 12 procs for 24 steps with 1008 atoms

99.8% CPU use with 12 MPI tasks x no OpenMP threads

Minimization stats:
  Stopping criterion = linesearch alpha is zero
  Energy initial, next-to-last, final = 
        -18273.9089365     -18274.0674835     -18274.0674835
  Force two-norm initial, final = 1.83355 0.0945071
  Force max component initial, final = 0.166528 0.00753319
  Final line search alpha, max atom move = 9.53674e-07 7.18421e-09
  Iterations, force evaluations = 24 87

MPI task timing breakdown:
Section |  min time  |  avg time  |  max time  |%varavg| %total
---------------------------------------------------------------
Pair    | 0.086944   | 0.09628    | 0.10174    |   1.2 | 37.81
Kspace  | 0.13974    | 0.14277    | 0.14513    |   0.4 | 56.06
Neigh   | 0          | 0          | 0          |   0.0 |  0.00
Comm    | 0.0093517  | 0.013898   | 0.021787   |   2.8 |  5.46
Output  | 0          | 0          | 0          |   0.0 |  0.00
Modify  | 0          | 0          | 0          |   0.0 |  0.00
Other   |            | 0.00171    |            |       |  0.67

Nlocal:    84 ave 88 max 77 min
Histogram: 1 0 1 0 0 2 3 1 1 3
Nghost:    2608.33 ave 2633 max 2582 min
Histogram: 2 0 2 0 0 4 0 0 2 2
Neighs:    18728.7 ave 19626 max 17100 min
Histogram: 1 0 1 0 0 2 3 1 2 2

Total # of neighbors = 224744
Ave neighs/atom = 222.96
Neighbor list builds = 0
Dangerous builds = 0
  triclinic box = (0.0388306 0 0) to (23.2618 23.3007 23.3007) with tilt (0 0 0)
WARNING: Resetting reneighboring criteria during minimization (../min.cpp:168)
Ewald initialization ...
  G vector (1/distance) = 0.365078
  estimated absolute RMS force accuracy = 1.92793e-05
  estimated relative force accuracy = 1.33888e-06
  KSpace vectors: actual max1d max3d = 2084 10 4630
                  kxmax kymax kzmax  = 10 10 10
Memory usage per processor = 4.56189 Mbytes
Step Temp E_pair E_mol TotEng Press 
      24           10   -18273.994            0   -18272.693   -893.30014 
      33           10   -18274.057            0   -18272.755   -3072.0091 
Loop time of 0.184802 on 12 procs for 9 steps with 1008 atoms

99.6% CPU use with 12 MPI tasks x no OpenMP threads

Minimization stats:
  Stopping criterion = linesearch alpha is zero
  Energy initial, next-to-last, final = 
         -18273.994451     -18274.0571109     -18274.0571109
  Force two-norm initial, final = 1.21472 0.245655
  Force max component initial, final = 0.109976 0.0289177
  Final line search alpha, max atom move = 1.19209e-07 3.44726e-09
  Iterations, force evaluations = 9 63

MPI task timing breakdown:
Section |  min time  |  avg time  |  max time  |%varavg| %total
---------------------------------------------------------------
Pair    | 0.06339    | 0.07015    | 0.073646   |   1.0 | 37.96
Kspace  | 0.10139    | 0.10336    | 0.1047     |   0.3 | 55.93
Neigh   | 0          | 0          | 0          |   0.0 |  0.00
Comm    | 0.0066876  | 0.010212   | 0.015999   |   2.4 |  5.53
Output  | 0          | 0          | 0          |   0.0 |  0.00
Modify  | 0          | 0          | 0          |   0.0 |  0.00
Other   |            | 0.001082   |            |       |  0.59

Nlocal:    84 ave 88 max 77 min
Histogram: 1 0 1 0 0 2 3 1 1 3
Nghost:    2605.17 ave 2630 max 2579 min
Histogram: 2 1 1 0 0 4 0 0 3 1
Neighs:    18698 ave 19603 max 17078 min
Histogram: 1 0 1 0 0 2 3 1 2 2

Total # of neighbors = 224376
Ave neighs/atom = 222.595
Neighbor list builds = 0
Dangerous builds = 0
  triclinic box = (0.0194211 0 0) to (23.2813 23.3007 23.3007) with tilt (0 0 0)
WARNING: Resetting reneighboring criteria during minimization (../min.cpp:168)
Ewald initialization ...
  G vector (1/distance) = 0.365066
  estimated absolute RMS force accuracy = 1.9345e-05
  estimated relative force accuracy = 1.34344e-06
  KSpace vectors: actual max1d max3d = 2084 10 4630
                  kxmax kymax kzmax  = 10 10 10
Memory usage per processor = 4.56189 Mbytes
Step Temp E_pair E_mol TotEng Press 
      33           10       -18274            0   -18272.699   -4458.1409 
      43           10   -18274.017            0   -18272.715   -5556.0754 
Loop time of 0.174399 on 12 procs for 10 steps with 1008 atoms

99.9% CPU use with 12 MPI tasks x no OpenMP threads

Minimization stats:
  Stopping criterion = linesearch alpha is zero
  Energy initial, next-to-last, final = 
        -18274.0003147     -18274.0166912     -18274.0166912
  Force two-norm initial, final = 0.603362 0.107624
  Force max component initial, final = 0.0544481 0.00955109
  Final line search alpha, max atom move = 9.53674e-07 9.10863e-09
  Iterations, force evaluations = 10 59

MPI task timing breakdown:
Section |  min time  |  avg time  |  max time  |%varavg| %total
---------------------------------------------------------------
Pair    | 0.059684   | 0.065801   | 0.068975   |   0.9 | 37.73
Kspace  | 0.096453   | 0.097873   | 0.099006   |   0.3 | 56.12
Neigh   | 0          | 0          | 0          |   0.0 |  0.00
Comm    | 0.0068512  | 0.0096684  | 0.014719   |   2.2 |  5.54
Output  | 0          | 0          | 0          |   0.0 |  0.00
Modify  | 0          | 0          | 0          |   0.0 |  0.00
Other   |            | 0.001056   |            |       |  0.61

Nlocal:    84 ave 88 max 77 min
Histogram: 1 0 1 0 0 2 3 1 1 3
Nghost:    2602.5 ave 2627 max 2577 min
Histogram: 2 0 2 0 0 4 0 0 3 1
Neighs:    18665.5 ave 19568 max 17056 min
Histogram: 1 0 1 0 0 2 3 1 2 2

Total # of neighbors = 223986
Ave neighs/atom = 222.208
Neighbor list builds = 0
Dangerous builds = 0
  triclinic box = (0 0 0) to (23.3007 23.3007 23.3007) with tilt (0 0 0)
WARNING: Resetting reneighboring criteria during minimization (../min.cpp:168)
Ewald initialization ...
  G vector (1/distance) = 0.365055
  estimated absolute RMS force accuracy = 1.94166e-05
  estimated relative force accuracy = 1.34841e-06
  KSpace vectors: actual max1d max3d = 2084 10 4630
                  kxmax kymax kzmax  = 10 10 10
Memory usage per processor = 4.56189 Mbytes
Step Temp E_pair E_mol TotEng Press 
      43           10   -18273.917            0   -18272.616   -7986.0765 
      44           10   -18273.917            0   -18272.616   -7986.0765 
Loop time of 0.0700284 on 12 procs for 1 steps with 1008 atoms

99.9% CPU use with 12 MPI tasks x no OpenMP threads

Minimization stats:
  Stopping criterion = linesearch alpha is zero
  Energy initial, next-to-last, final = 
        -18273.9173406     -18273.9173406     -18273.9173406
  Force two-norm initial, final = 0.00473488 0.00473488
  Force max component initial, final = 0.000337705 0.000337705
  Final line search alpha, max atom move = 0.000488281 1.64895e-07
  Iterations, force evaluations = 1 23

MPI task timing breakdown:
Section |  min time  |  avg time  |  max time  |%varavg| %total
---------------------------------------------------------------
Pair    | 0.024056   | 0.026298   | 0.027524   |   0.5 | 37.55
Kspace  | 0.038699   | 0.039299   | 0.039835   |   0.2 | 56.12
Neigh   | 0          | 0          | 0          |   0.0 |  0.00
Comm    | 0.0028322  | 0.0040091  | 0.0059719  |   1.4 |  5.73
Output  | 0          | 0          | 0          |   0.0 |  0.00
Modify  | 0          | 0          | 0          |   0.0 |  0.00
Other   |            | 0.0004226  |            |       |  0.60

Nlocal:    84 ave 88 max 77 min
Histogram: 1 0 1 0 0 2 3 1 1 3
Nghost:    2598.5 ave 2626 max 2570 min
Histogram: 2 0 2 0 1 3 0 0 3 1
Neighs:    18636.2 ave 19536 max 17026 min
Histogram: 1 0 1 0 0 2 3 1 2 2

Total # of neighbors = 223635
Ave neighs/atom = 221.86
Neighbor list builds = 0
Dangerous builds = 0
  triclinic box = (-0.0194211 0 0) to (23.3201 23.3007 23.3007) with tilt (0 0 0)
WARNING: Resetting reneighboring criteria during minimization (../min.cpp:168)
Ewald initialization ...
  G vector (1/distance) = 0.365044
  estimated absolute RMS force accuracy = 1.94944e-05
  estimated relative force accuracy = 1.35381e-06
  KSpace vectors: actual max1d max3d = 2084 10 4630
                  kxmax kymax kzmax  = 10 10 10
Memory usage per processor = 4.56189 Mbytes
Step Temp E_pair E_mol TotEng Press 
      44           10   -18273.753            0   -18272.451   -11477.063 
      50           10   -18273.767            0   -18272.465   -10455.539 
      63           10   -18273.771            0   -18272.469   -10278.798 
Loop time of 0.428889 on 12 procs for 19 steps with 1008 atoms

99.9% CPU use with 12 MPI tasks x no OpenMP threads

Minimization stats:
  Stopping criterion = linesearch alpha is zero
  Energy initial, next-to-last, final = 
        -18273.7530941     -18273.7710093     -18273.7710093
  Force two-norm initial, final = 0.599147 0.0474323
  Force max component initial, final = 0.0537456 0.00411918
  Final line search alpha, max atom move = 3.8147e-06 1.57134e-08
  Iterations, force evaluations = 19 147

MPI task timing breakdown:
Section |  min time  |  avg time  |  max time  |%varavg| %total
---------------------------------------------------------------
Pair    | 0.14917    | 0.16202    | 0.16951    |   1.4 | 37.78
Kspace  | 0.23609    | 0.24013    | 0.24308    |   0.4 | 55.99
Neigh   | 0          | 0          | 0          |   0.0 |  0.00
Comm    | 0.016393   | 0.024162   | 0.037524   |   3.7 |  5.63
Output  | 2.408e-05  | 2.5153e-05 | 3.314e-05  |   0.0 |  0.01
Modify  | 0          | 0          | 0          |   0.0 |  0.00
Other   |            | 0.002547   |            |       |  0.59

Nlocal:    84 ave 88 max 77 min
Histogram: 1 0 1 0 0 2 3 1 1 3
Nghost:    2596 ave 2624 max 2568 min
Histogram: 2 0 2 1 0 3 0 0 3 1
Neighs:    18605.4 ave 19504 max 16997 min
Histogram: 1 0 1 0 0 2 3 1 2 2

Total # of neighbors = 223265
Ave neighs/atom = 221.493
Neighbor list builds = 0
Dangerous builds = 0
  triclinic box = (-0.0388306 0 0) to (23.3395 23.3007 23.3007) with tilt (0 0 0)
WARNING: Resetting reneighboring criteria during minimization (../min.cpp:168)
Ewald initialization ...
  G vector (1/distance) = 0.365032
  estimated absolute RMS force accuracy = 1.95788e-05
  estimated relative force accuracy = 1.35968e-06
  KSpace vectors: actual max1d max3d = 2084 10 4630
                  kxmax kymax kzmax  = 10 10 10
Memory usage per processor = 4.56189 Mbytes
Step Temp E_pair E_mol TotEng Press 
      63           10   -18273.503            0   -18272.201   -14928.111 
      82           10   -18273.573            0   -18272.272   -12562.081 
Loop time of 0.227202 on 12 procs for 19 steps with 1008 atoms

99.9% CPU use with 12 MPI tasks x no OpenMP threads

Minimization stats:
  Stopping criterion = linesearch alpha is zero
  Energy initial, next-to-last, final = 
        -18273.5031485      -18273.573433      -18273.573433
  Force two-norm initial, final = 1.18982 0.0943325
  Force max component initial, final = 0.106376 0.00875533
  Final line search alpha, max atom move = 9.53674e-07 8.34974e-09
  Iterations, force evaluations = 19 77

MPI task timing breakdown:
Section |  min time  |  avg time  |  max time  |%varavg| %total
---------------------------------------------------------------
Pair    | 0.078199   | 0.08542    | 0.09022    |   1.0 | 37.60
Kspace  | 0.1258     | 0.12757    | 0.12932    |   0.3 | 56.15
Neigh   | 0          | 0          | 0          |   0.0 |  0.00
Comm    | 0.0089064  | 0.01273    | 0.019419   |   2.6 |  5.60
Output  | 0          | 0          | 0          |   0.0 |  0.00
Modify  | 0          | 0          | 0          |   0.0 |  0.00
Other   |            | 0.001478   |            |       |  0.65

Nlocal:    84 ave 88 max 77 min
Histogram: 1 0 1 0 0 2 3 1 1 3
Nghost:    2595.25 ave 2622 max 2568 min
Histogram: 2 0 2 0 1 3 0 0 3 1
Neighs:    18573 ave 19470 max 16956 min
Histogram: 1 0 1 0 0 2 3 1 2 2

Total # of neighbors = 222876
Ave neighs/atom = 221.107
Neighbor list builds = 0
Dangerous builds = 0
  triclinic box = (-0.0582517 0 0) to (23.3589 23.3007 23.3007) with tilt (0 0 0)
WARNING: Resetting reneighboring criteria during minimization (../min.cpp:168)
Ewald initialization ...
  G vector (1/distance) = 0.365021
  estimated absolute RMS force accuracy = 1.96704e-05
  estimated relative force accuracy = 1.36604e-06
  KSpace vectors: actual max1d max3d = 2084 10 4630
                  kxmax kymax kzmax  = 10 10 10
Memory usage per processor = 4.56189 Mbytes
Step Temp E_pair E_mol TotEng Press 
      82           10   -18273.173            0   -18271.872   -18344.899 
     100           10   -18273.326            0   -18272.025   -14825.753 
     109           10   -18273.331            0   -18272.029    -14762.86 
Loop time of 0.364056 on 12 procs for 27 steps with 1008 atoms

99.9% CPU use with 12 MPI tasks x no OpenMP threads

Minimization stats:
  Stopping criterion = linesearch alpha is zero
  Energy initial, next-to-last, final = 
        -18273.1732335     -18273.3307989     -18273.3307989
  Force two-norm initial, final = 1.77413 0.0750562
  Force max component initial, final = 0.158099 0.00851764
  Final line search alpha, max atom move = 1.90735e-06 1.62461e-08
  Iterations, force evaluations = 27 125

MPI task timing breakdown:
Section |  min time  |  avg time  |  max time  |%varavg| %total
---------------------------------------------------------------
Pair    | 0.12423    | 0.13776    | 0.14352    |   1.4 | 37.84
Kspace  | 0.20042    | 0.20382    | 0.20679    |   0.4 | 55.99
Neigh   | 0          | 0          | 0          |   0.0 |  0.00
Comm    | 0.01402    | 0.0202     | 0.031111   |   3.3 |  5.55
Output  | 2.8133e-05 | 2.8948e-05 | 3.6001e-05 |   0.0 |  0.01
Modify  | 0          | 0          | 0          |   0.0 |  0.00
Other   |            | 0.002242   |            |       |  0.62

Nlocal:    84 ave 88 max 77 min
Histogram: 1 0 1 0 0 2 3 1 1 3
Nghost:    2594.5 ave 2620 max 2568 min
Histogram: 2 0 2 0 1 3 0 0 2 2
Neighs:    18541.1 ave 19426 max 16937 min
Histogram: 1 0 1 0 0 2 2 2 2 2

Total # of neighbors = 222493
Ave neighs/atom = 220.727
Neighbor list builds = 0
Dangerous builds = 0
  triclinic box = (0 0.0582517 0) to (23.3007 23.2424 23.3007) with tilt (0 0 0)
WARNING: Resetting reneighboring criteria during minimization (../min.cpp:168)
Ewald initialization ...
  G vector (1/distance) = 0.365089
  estimated absolute RMS force accuracy = 1.92191e-05
  estimated relative force accuracy = 1.33469e-06
  KSpace vectors: actual max1d max3d = 2088 10 4630
                  kxmax kymax kzmax  = 10 10 10
Memory usage per processor = 4.56189 Mbytes
Step Temp E_pair E_mol TotEng Press 
     109           10   -18274.054            0   -18272.752    2671.5618 
     133           10   -18274.206            0   -18272.904   -982.10154 
Loop time of 0.259862 on 12 procs for 24 steps with 1008 atoms

99.9% CPU use with 12 MPI tasks x no OpenMP threads

Minimization stats:
  Stopping criterion = linesearch alpha is zero
  Energy initial, next-to-last, final = 
        -18274.0535049      -18274.206067      -18274.206067
  Force two-norm initial, final = 1.75537 0.10621
  Force max component initial, final = 0.164132 0.0126747
  Final line search alpha, max atom move = 9.53674e-07 1.20875e-08
  Iterations, force evaluations = 24 87

MPI task timing breakdown:
Section |  min time  |  avg time  |  max time  |%varavg| %total
---------------------------------------------------------------
Pair    | 0.08812    | 0.097536   | 0.10315    |   1.2 | 37.53
Kspace  | 0.14252    | 0.14482    | 0.14772    |   0.4 | 55.73
Neigh   | 0          | 0          | 0          |   0.0 |  0.00
Comm    | 0.011222   | 0.015839   | 0.022372   |   2.4 |  6.10
Output  | 0          | 0          | 0          |   0.0 |  0.00
Modify  | 0          | 0          | 0          |   0.0 |  0.00
Other   |            | 0.001672   |            |       |  0.64

Nlocal:    84 ave 88 max 77 min
Histogram: 1 0 1 0 0 2 3 1 1 3
Nghost:    2610.67 ave 2638 max 2580 min
Histogram: 2 0 2 0 0 3 1 1 1 2
Neighs:    18730.4 ave 19637 max 17102 min
Histogram: 1 0 1 0 0 2 3 1 2 2

Total # of neighbors = 224765
Ave neighs/atom = 222.981
Neighbor list builds = 0
Dangerous builds = 0
  triclinic box = (0 0.0388306 0) to (23.3007 23.2618 23.3007) with tilt (0 0 0)
WARNING: Resetting reneighboring criteria during minimization (../min.cpp:168)
Ewald initialization ...
  G vector (1/distance) = 0.365078
  estimated absolute RMS force accuracy = 1.92793e-05
  estimated relative force accuracy = 1.33888e-06
  KSpace vectors: actual max1d max3d = 2084 10 4630
                  kxmax kymax kzmax  = 10 10 10
Memory usage per processor = 4.56189 Mbytes
Step Temp E_pair E_mol TotEng Press 
     133           10   -18274.098            0   -18272.796   -920.93232 
     150           10   -18274.163            0   -18272.861   -3279.6788 
     151           10   -18274.163            0   -18272.861   -3279.6788 
Loop time of 0.222693 on 12 procs for 18 steps with 1008 atoms

99.8% CPU use with 12 MPI tasks x no OpenMP threads

Minimization stats:
  Stopping criterion = linesearch alpha is zero
  Energy initial, next-to-last, final = 
        -18274.0978674     -18274.1631087     -18274.1631087
  Force two-norm initial, final = 1.16329 0.11048
  Force max component initial, final = 0.108703 0.0124834
  Final line search alpha, max atom move = 9.53674e-07 1.19051e-08
  Iterations, force evaluations = 18 75

MPI task timing breakdown:
Section |  min time  |  avg time  |  max time  |%varavg| %total
---------------------------------------------------------------
Pair    | 0.076369   | 0.084117   | 0.088182   |   1.1 | 37.77
Kspace  | 0.12228    | 0.12456    | 0.1263     |   0.4 | 55.93
Neigh   | 0          | 0          | 0          |   0.0 |  0.00
Comm    | 0.0089536  | 0.012577   | 0.019071   |   2.5 |  5.65
Output  | 2.5988e-05 | 2.7219e-05 | 3.5048e-05 |   0.0 |  0.01
Modify  | 0          | 0          | 0          |   0.0 |  0.00
Other   |            | 0.001415   |            |       |  0.64

Nlocal:    84 ave 88 max 77 min
Histogram: 1 0 1 0 0 2 3 1 1 3
Nghost:    2605.92 ave 2634 max 2577 min
Histogram: 2 0 2 0 1 3 0 0 3 1
Neighs:    18700.2 ave 19611 max 17077 min
Histogram: 1 0 1 0 0 2 3 1 2 2

Total # of neighbors = 224403
Ave neighs/atom = 222.622
Neighbor list builds = 0
Dangerous builds = 0
  triclinic box = (0 0.0194211 0) to (23.3007 23.2813 23.3007) with tilt (0 0 0)
WARNING: Resetting reneighboring criteria during minimization (../min.cpp:168)
Ewald initialization ...
  G vector (1/distance) = 0.365066
  estimated absolute RMS force accuracy = 1.9345e-05
  estimated relative force accuracy = 1.34344e-06
  KSpace vectors: actual max1d max3d = 2084 10 4630
                  kxmax kymax kzmax  = 10 10 10
Memory usage per processor = 4.56189 Mbytes
Step Temp E_pair E_mol TotEng Press 
     151           10   -18274.049            0   -18272.748   -4471.2473 
     162           10   -18274.065            0   -18272.763   -5548.8755 
Loop time of 0.293457 on 12 procs for 11 steps with 1008 atoms

99.8% CPU use with 12 MPI tasks x no OpenMP threads

Minimization stats:
  Stopping criterion = linesearch alpha is zero
  Energy initial, next-to-last, final = 
        -18274.0493899     -18274.0647952     -18274.0647952
  Force two-norm initial, final = 0.577991 0.094573
  Force max component initial, final = 0.0540578 0.00810067
  Final line search alpha, max atom move = 9.53674e-07 7.7254e-09
  Iterations, force evaluations = 11 99

MPI task timing breakdown:
Section |  min time  |  avg time  |  max time  |%varavg| %total
---------------------------------------------------------------
Pair    | 0.09959    | 0.10984    | 0.11504    |   1.2 | 37.43
Kspace  | 0.16065    | 0.16307    | 0.16757    |   0.5 | 55.57
Neigh   | 0          | 0          | 0          |   0.0 |  0.00
Comm    | 0.014168   | 0.018851   | 0.024622   |   2.3 |  6.42
Output  | 0          | 0          | 0          |   0.0 |  0.00
Modify  | 0          | 0          | 0          |   0.0 |  0.00
Other   |            | 0.001697   |            |       |  0.58

Nlocal:    84 ave 88 max 77 min
Histogram: 1 0 1 0 0 2 3 1 1 3
Nghost:    2601.25 ave 2630 max 2573 min
Histogram: 2 0 2 0 2 2 0 0 3 1
Neighs:    18668.1 ave 19573 max 17053 min
Histogram: 1 0 1 0 0 2 3 1 2 2

Total # of neighbors = 224017
Ave neighs/atom = 222.239
Neighbor list builds = 0
Dangerous builds = 0
  triclinic box = (0 0 0) to (23.3007 23.3007 23.3007) with tilt (0 0 0)
WARNING: Resetting reneighboring criteria during minimization (../min.cpp:168)
Ewald initialization ...
  G vector (1/distance) = 0.365055
  estimated absolute RMS force accuracy = 1.94166e-05
  estimated relative force accuracy = 1.34841e-06
  KSpace vectors: actual max1d max3d = 2084 10 4630
                  kxmax kymax kzmax  = 10 10 10
Memory usage per processor = 4.56189 Mbytes
Step Temp E_pair E_mol TotEng Press 
     162           10   -18273.917            0   -18272.616   -7986.0765 
     163           10   -18273.917            0   -18272.616   -7986.0765 
Loop time of 0.0706049 on 12 procs for 1 steps with 1008 atoms

99.4% CPU use with 12 MPI tasks x no OpenMP threads

Minimization stats:
  Stopping criterion = linesearch alpha is zero
  Energy initial, next-to-last, final = 
        -18273.9173406     -18273.9173406     -18273.9173406
  Force two-norm initial, final = 0.00473488 0.00473488
  Force max component initial, final = 0.000337705 0.000337705
  Final line search alpha, max atom move = 0.000488281 1.64895e-07
  Iterations, force evaluations = 1 23

MPI task timing breakdown:
Section |  min time  |  avg time  |  max time  |%varavg| %total
---------------------------------------------------------------
Pair    | 0.023812   | 0.026457   | 0.028076   |   0.7 | 37.47
Kspace  | 0.03877    | 0.039567   | 0.040318   |   0.2 | 56.04
Neigh   | 0          | 0          | 0          |   0.0 |  0.00
Comm    | 0.0027075  | 0.0041465  | 0.0065024  |   1.5 |  5.87
Output  | 0          | 0          | 0          |   0.0 |  0.00
Modify  | 0          | 0          | 0          |   0.0 |  0.00
Other   |            | 0.0004345  |            |       |  0.62

Nlocal:    84 ave 88 max 77 min
Histogram: 1 0 1 0 0 2 3 1 1 3
Nghost:    2598.5 ave 2626 max 2570 min
Histogram: 2 0 2 0 1 3 0 0 3 1
Neighs:    18636.2 ave 19536 max 17026 min
Histogram: 1 0 1 0 0 2 3 1 2 2

Total # of neighbors = 223635
Ave neighs/atom = 221.86
Neighbor list builds = 0
Dangerous builds = 0
  triclinic box = (0 -0.0194211 0) to (23.3007 23.3201 23.3007) with tilt (0 0 0)
WARNING: Resetting reneighboring criteria during minimization (../min.cpp:168)
Ewald initialization ...
  G vector (1/distance) = 0.365044
  estimated absolute RMS force accuracy = 1.94944e-05
  estimated relative force accuracy = 1.35381e-06
  KSpace vectors: actual max1d max3d = 2084 10 4630
                  kxmax kymax kzmax  = 10 10 10
Memory usage per processor = 4.56189 Mbytes
Step Temp E_pair E_mol TotEng Press 
     163           10   -18273.703            0   -18272.401   -11463.873 
     177           10   -18273.719            0   -18272.417   -10324.563 
Loop time of 0.196564 on 12 procs for 14 steps with 1008 atoms

99.7% CPU use with 12 MPI tasks x no OpenMP threads

Minimization stats:
  Stopping criterion = linesearch alpha is zero
  Energy initial, next-to-last, final = 
        -18273.7029473     -18273.7191217     -18273.7191217
  Force two-norm initial, final = 0.574576 0.0756317
  Force max component initial, final = 0.05314 0.0059111
  Final line search alpha, max atom move = 1.90735e-06 1.12745e-08
  Iterations, force evaluations = 14 65

MPI task timing breakdown:
Section |  min time  |  avg time  |  max time  |%varavg| %total
---------------------------------------------------------------
Pair    | 0.066296   | 0.07367    | 0.078285   |   1.1 | 37.48
Kspace  | 0.10725    | 0.11015    | 0.1115     |   0.4 | 56.04
Neigh   | 0          | 0          | 0          |   0.0 |  0.00
Comm    | 0.00789    | 0.011511   | 0.017565   |   2.4 |  5.86
Output  | 0          | 0          | 0          |   0.0 |  0.00
Modify  | 0          | 0          | 0          |   0.0 |  0.00
Other   |            | 0.001234   |            |       |  0.63

Nlocal:    84 ave 88 max 77 min
Histogram: 1 0 1 0 0 2 3 1 1 3
Nghost:    2590.08 ave 2620 max 2563 min
Histogram: 2 1 1 1 2 1 0 1 2 1
Neighs:    18605 ave 19504 max 16998 min
Histogram: 1 0 1 0 0 2 3 1 2 2

Total # of neighbors = 223260
Ave neighs/atom = 221.488
Neighbor list builds = 0
Dangerous builds = 0
  triclinic box = (0 -0.0388306 0) to (23.3007 23.3395 23.3007) with tilt (0 0 0)
WARNING: Resetting reneighboring criteria during minimization (../min.cpp:168)
Ewald initialization ...
  G vector (1/distance) = 0.365032
  estimated absolute RMS force accuracy = 1.95788e-05
  estimated relative force accuracy = 1.35968e-06
  KSpace vectors: actual max1d max3d = 2084 10 4630
                  kxmax kymax kzmax  = 10 10 10
Memory usage per processor = 4.56189 Mbytes
Step Temp E_pair E_mol TotEng Press 
     177           10   -18273.406            0   -18272.105   -14902.572 
     197           10   -18273.474            0   -18272.173   -12526.744 
Loop time of 0.236202 on 12 procs for 20 steps with 1008 atoms

100.0% CPU use with 12 MPI tasks x no OpenMP threads

Minimization stats:
  Stopping criterion = linesearch alpha is zero
  Energy initial, next-to-last, final = 
        -18273.4062873     -18273.4744669     -18273.4744669
  Force two-norm initial, final = 1.14131 0.11101
  Force max component initial, final = 0.105626 0.00947397
  Final line search alpha, max atom move = 9.53674e-07 9.03508e-09
  Iterations, force evaluations = 20 79

MPI task timing breakdown:
Section |  min time  |  avg time  |  max time  |%varavg| %total
---------------------------------------------------------------
Pair    | 0.08199    | 0.08913    | 0.092716   |   1.0 | 37.73
Kspace  | 0.12907    | 0.13162    | 0.1336     |   0.3 | 55.72
Neigh   | 0          | 0          | 0          |   0.0 |  0.00
Comm    | 0.010082   | 0.013893   | 0.020684   |   2.5 |  5.88
Output  | 0          | 0          | 0          |   0.0 |  0.00
Modify  | 0          | 0          | 0          |   0.0 |  0.00
Other   |            | 0.001559   |            |       |  0.66

Nlocal:    84 ave 88 max 77 min
Histogram: 1 0 1 0 0 2 3 1 1 3
Nghost:    2586.08 ave 2615 max 2557 min
Histogram: 2 0 2 0 1 3 0 1 2 1
Neighs:    18576 ave 19478 max 16968 min
Histogram: 1 0 1 0 0 2 3 1 2 2

Total # of neighbors = 222912
Ave neighs/atom = 221.143
Neighbor list builds = 0
Dangerous builds = 0
  triclinic box = (0 -0.0582517 0) to (23.3007 23.3589 23.3007) with tilt (0 0 0)
WARNING: Resetting reneighboring criteria during minimization (../min.cpp:168)
Ewald initialization ...
  G vector (1/distance) = 0.365021
  estimated absolute RMS force accuracy = 1.96704e-05
  estimated relative force accuracy = 1.36604e-06
  KSpace vectors: actual max1d max3d = 2084 10 4630
                  kxmax kymax kzmax  = 10 10 10
Memory usage per processor = 4.56189 Mbytes
Step Temp E_pair E_mol TotEng Press 
     197           10   -18273.028            0   -18271.727   -18306.849 
     200           10   -18273.128            0   -18271.826   -16015.594 
     216           10   -18273.178            0   -18271.876   -14784.726 
Loop time of 0.242803 on 12 procs for 19 steps with 1008 atoms

99.8% CPU use with 12 MPI tasks x no OpenMP threads

Minimization stats:
  Stopping criterion = linesearch alpha is zero
  Energy initial, next-to-last, final = 
        -18273.0283697     -18273.1776263     -18273.1776263
  Force two-norm initial, final = 1.70235 0.17074
  Force max component initial, final = 0.157383 0.0157929
  Final line search alpha, max atom move = 2.38419e-07 3.76532e-09
  Iterations, force evaluations = 19 81

MPI task timing breakdown:
Section |  min time  |  avg time  |  max time  |%varavg| %total
---------------------------------------------------------------
Pair    | 0.08338    | 0.091381   | 0.095041   |   1.0 | 37.64
Kspace  | 0.13301    | 0.13581    | 0.13783    |   0.4 | 55.93
Neigh   | 0          | 0          | 0          |   0.0 |  0.00
Comm    | 0.010318   | 0.014002   | 0.020855   |   2.5 |  5.77
Output  | 2.5988e-05 | 2.7696e-05 | 3.5048e-05 |   0.0 |  0.01
Modify  | 0          | 0          | 0          |   0.0 |  0.00
Other   |            | 0.001582   |            |       |  0.65

Nlocal:    84 ave 88 max 77 min
Histogram: 1 0 1 0 0 2 3 1 1 3
Nghost:    2583.42 ave 2611 max 2554 min
Histogram: 2 1 1 0 2 1 1 2 0 2
Neighs:    18546.6 ave 19439 max 16939 min
Histogram: 1 0 1 0 0 2 2 2 2 2

Total # of neighbors = 222559
Ave neighs/atom = 220.793
Neighbor list builds = 0
Dangerous builds = 0
  triclinic box = (0 0 0.0582517) to (23.3007 23.3007 23.2424) with tilt (0 0 0)
WARNING: Resetting reneighboring criteria during minimization (../min.cpp:168)
Ewald initialization ...
  G vector (1/distance) = 0.365089
  estimated absolute RMS force accuracy = 1.92191e-05
  estimated relative force accuracy = 1.33469e-06
  KSpace vectors: actual max1d max3d = 2088 10 4630
                  kxmax kymax kzmax  = 10 10 10
Memory usage per processor = 4.56189 Mbytes
Step Temp E_pair E_mol TotEng Press 
     216           10   -18273.886            0   -18272.584     2509.415 
     245           10   -18274.044            0   -18272.743    -1400.797 
Loop time of 0.293924 on 12 procs for 29 steps with 1008 atoms

100.0% CPU use with 12 MPI tasks x no OpenMP threads

Minimization stats:
  Stopping criterion = linesearch alpha is zero
  Energy initial, next-to-last, final = 
        -18273.8857883     -18274.0444963     -18274.0444963
  Force two-norm initial, final = 1.89557 0.0862179
  Force max component initial, final = 0.166314 0.00794009
  Final line search alpha, max atom move = 9.53674e-07 7.57226e-09
  Iterations, force evaluations = 29 97

MPI task timing breakdown:
Section |  min time  |  avg time  |  max time  |%varavg| %total
---------------------------------------------------------------
Pair    | 0.10015    | 0.11067    | 0.11695    |   1.3 | 37.65
Kspace  | 0.16088    | 0.16423    | 0.16714    |   0.5 | 55.87
Neigh   | 0          | 0          | 0          |   0.0 |  0.00
Comm    | 0.011985   | 0.016966   | 0.02567    |   2.9 |  5.77
Output  | 0          | 0          | 0          |   0.0 |  0.00
Modify  | 0          | 0          | 0          |   0.0 |  0.00
Other   |            | 0.002058   |            |       |  0.70

Nlocal:    84 ave 88 max 77 min
Histogram: 1 0 1 0 0 2 3 1 1 3
Nghost:    2612.75 ave 2637 max 2591 min
Histogram: 2 1 1 2 0 2 0 1 1 2
Neighs:    18729.5 ave 19635 max 17110 min
Histogram: 1 0 1 0 0 2 3 1 2 2

Total # of neighbors = 224754
Ave neighs/atom = 222.97
Neighbor list builds = 0
Dangerous builds = 0
  triclinic box = (0 0 0.0388306) to (23.3007 23.3007 23.2618) with tilt (0 0 0)
WARNING: Resetting reneighboring criteria during minimization (../min.cpp:168)
Ewald initialization ...
  G vector (1/distance) = 0.365078
  estimated absolute RMS force accuracy = 1.92793e-05
  estimated relative force accuracy = 1.33888e-06
  KSpace vectors: actual max1d max3d = 2084 10 4630
                  kxmax kymax kzmax  = 10 10 10
Memory usage per processor = 4.56189 Mbytes
Step Temp E_pair E_mol TotEng Press 
     245           10    -18273.98            0   -18272.678   -1026.9172 
     250           10   -18274.034            0   -18272.732    -2877.167 
     263           10   -18274.048            0   -18272.747   -3497.8146 
Loop time of 0.233222 on 12 procs for 18 steps with 1008 atoms

99.6% CPU use with 12 MPI tasks x no OpenMP threads

Minimization stats:
  Stopping criterion = linesearch alpha is zero
  Energy initial, next-to-last, final = 
        -18273.9799354     -18274.0484607     -18274.0484607
  Force two-norm initial, final = 1.25604 0.125741
  Force max component initial, final = 0.109816 0.0146862
  Final line search alpha, max atom move = 4.76837e-07 7.00292e-09
  Iterations, force evaluations = 18 77

MPI task timing breakdown:
Section |  min time  |  avg time  |  max time  |%varavg| %total
---------------------------------------------------------------
Pair    | 0.080097   | 0.088309   | 0.092109   |   1.1 | 37.86
Kspace  | 0.12758    | 0.12966    | 0.13174    |   0.3 | 55.59
Neigh   | 0          | 0          | 0          |   0.0 |  0.00
Comm    | 0.010045   | 0.013718   | 0.020324   |   2.5 |  5.88
Output  | 2.5034e-05 | 2.6266e-05 | 3.4094e-05 |   0.0 |  0.01
Modify  | 0          | 0          | 0          |   0.0 |  0.00
Other   |            | 0.00151    |            |       |  0.65

Nlocal:    84 ave 88 max 77 min
Histogram: 1 0 1 0 0 2 3 1 1 3
Nghost:    2607 ave 2629 max 2583 min
Histogram: 2 0 2 0 2 2 0 0 2 2
Neighs:    18698.1 ave 19612 max 17074 min
Histogram: 1 0 1 0 0 2 3 1 2 2

Total # of neighbors = 224377
Ave neighs/atom = 222.596
Neighbor list builds = 0
Dangerous builds = 0
  triclinic box = (0 0 0.0194211) to (23.3007 23.3007 23.2813) with tilt (0 0 0)
WARNING: Resetting reneighboring criteria during minimization (../min.cpp:168)
Ewald initialization ...
  G vector (1/distance) = 0.365066
  estimated absolute RMS force accuracy = 1.9345e-05
  estimated relative force accuracy = 1.34344e-06
  KSpace vectors: actual max1d max3d = 2084 10 4630
                  kxmax kymax kzmax  = 10 10 10
Memory usage per processor = 4.56189 Mbytes
Step Temp E_pair E_mol TotEng Press 
     263           10   -18273.988            0   -18272.686   -4523.3115 
     271           10   -18274.004            0   -18272.703   -5582.3379 
Loop time of 0.172867 on 12 procs for 8 steps with 1008 atoms

99.7% CPU use with 12 MPI tasks x no OpenMP threads

Minimization stats:
  Stopping criterion = linesearch alpha is zero
  Energy initial, next-to-last, final = 
        -18273.9877879     -18274.0044538     -18274.0044538
  Force two-norm initial, final = 0.624037 0.133889
  Force max component initial, final = 0.0544093 0.0136801
  Final line search alpha, max atom move = 4.76837e-07 6.52318e-09
  Iterations, force evaluations = 8 57

MPI task timing breakdown:
Section |  min time  |  avg time  |  max time  |%varavg| %total
---------------------------------------------------------------
Pair    | 0.059537   | 0.065296   | 0.067874   |   0.9 | 37.77
Kspace  | 0.094838   | 0.096343   | 0.098194   |   0.3 | 55.73
Neigh   | 0          | 0          | 0          |   0.0 |  0.00
Comm    | 0.0074351  | 0.010189   | 0.015155   |   2.2 |  5.89
Output  | 0          | 0          | 0          |   0.0 |  0.00
Modify  | 0          | 0          | 0          |   0.0 |  0.00
Other   |            | 0.001039   |            |       |  0.60

Nlocal:    84 ave 88 max 77 min
Histogram: 1 0 1 0 0 2 3 1 1 3
Nghost:    2602.25 ave 2628 max 2576 min
Histogram: 2 0 2 0 1 3 0 0 3 1
Neighs:    18666.2 ave 19577 max 17046 min
Histogram: 1 0 1 0 0 2 3 1 2 2

Total # of neighbors = 223994
Ave neighs/atom = 222.216
Neighbor list builds = 0
Dangerous builds = 0
  triclinic box = (0 0 0) to (23.3007 23.3007 23.3007) with tilt (0 0 0)
WARNING: Resetting reneighboring criteria during minimization (../min.cpp:168)
Ewald initialization ...
  G vector (1/distance) = 0.365055
  estimated absolute RMS force accuracy = 1.94166e-05
  estimated relative force accuracy = 1.34841e-06
  KSpace vectors: actual max1d max3d = 2084 10 4630
                  kxmax kymax kzmax  = 10 10 10
Memory usage per processor = 4.56189 Mbytes
Step Temp E_pair E_mol TotEng Press 
     271           10   -18273.917            0   -18272.616   -7986.0765 
     272           10   -18273.917            0   -18272.616   -7986.0765 
Loop time of 0.0712634 on 12 procs for 1 steps with 1008 atoms

99.5% CPU use with 12 MPI tasks x no OpenMP threads

Minimization stats:
  Stopping criterion = linesearch alpha is zero
  Energy initial, next-to-last, final = 
        -18273.9173406     -18273.9173406     -18273.9173406
  Force two-norm initial, final = 0.00473488 0.00473488
  Force max component initial, final = 0.000337705 0.000337705
  Final line search alpha, max atom move = 0.000488281 1.64895e-07
  Iterations, force evaluations = 1 23

MPI task timing breakdown:
Section |  min time  |  avg time  |  max time  |%varavg| %total
---------------------------------------------------------------
Pair    | 0.024613   | 0.026938   | 0.027923   |   0.6 | 37.80
Kspace  | 0.038731   | 0.039783   | 0.040501   |   0.2 | 55.82
Neigh   | 0          | 0          | 0          |   0.0 |  0.00
Comm    | 0.0030274  | 0.0041109  | 0.0061483  |   1.4 |  5.77
Output  | 0          | 0          | 0          |   0.0 |  0.00
Modify  | 0          | 0          | 0          |   0.0 |  0.00
Other   |            | 0.0004316  |            |       |  0.61

Nlocal:    84 ave 88 max 77 min
Histogram: 1 0 1 0 0 2 3 1 1 3
Nghost:    2598.5 ave 2626 max 2570 min
Histogram: 2 0 2 0 1 3 0 0 3 1
Neighs:    18636.2 ave 19536 max 17026 min
Histogram: 1 0 1 0 0 2 3 1 2 2

Total # of neighbors = 223635
Ave neighs/atom = 221.86
Neighbor list builds = 0
Dangerous builds = 0
  triclinic box = (0 0 -0.0194211) to (23.3007 23.3007 23.3201) with tilt (0 0 0)
WARNING: Resetting reneighboring criteria during minimization (../min.cpp:168)
Ewald initialization ...
  G vector (1/distance) = 0.365044
  estimated absolute RMS force accuracy = 1.94944e-05
  estimated relative force accuracy = 1.35381e-06
  KSpace vectors: actual max1d max3d = 2084 10 4630
                  kxmax kymax kzmax  = 10 10 10
Memory usage per processor = 4.56189 Mbytes
Step Temp E_pair E_mol TotEng Press 
     272           10   -18273.765            0   -18272.463   -11412.492 
     282           10    -18273.78            0   -18272.478   -10287.281 
Loop time of 0.177328 on 12 procs for 10 steps with 1008 atoms

99.7% CPU use with 12 MPI tasks x no OpenMP threads

Minimization stats:
  Stopping criterion = linesearch alpha is zero
  Energy initial, next-to-last, final = 
        -18273.7651343     -18273.7795153     -18273.7795153
  Force two-norm initial, final = 0.619924 0.104049
  Force max component initial, final = 0.0532148 0.0094137
  Final line search alpha, max atom move = 9.53674e-07 8.9776e-09
  Iterations, force evaluations = 10 59

MPI task timing breakdown:
Section |  min time  |  avg time  |  max time  |%varavg| %total
---------------------------------------------------------------
Pair    | 0.060395   | 0.06676    | 0.070139   |   0.9 | 37.65
Kspace  | 0.09745    | 0.099097   | 0.10091    |   0.4 | 55.88
Neigh   | 0          | 0          | 0          |   0.0 |  0.00
Comm    | 0.0075712  | 0.010389   | 0.015497   |   2.2 |  5.86
Output  | 0          | 0          | 0          |   0.0 |  0.00
Modify  | 0          | 0          | 0          |   0.0 |  0.00
Other   |            | 0.001082   |            |       |  0.61

Nlocal:    84 ave 88 max 77 min
Histogram: 1 0 1 0 0 2 3 1 1 3
Nghost:    2597.75 ave 2626 max 2568 min
Histogram: 2 0 2 0 1 3 0 0 3 1
Neighs:    18603.5 ave 19495 max 16989 min
Histogram: 1 0 1 0 0 2 3 1 2 2

Total # of neighbors = 223242
Ave neighs/atom = 221.47
Neighbor list builds = 0
Dangerous builds = 0
  triclinic box = (0 0 -0.0388306) to (23.3007 23.3007 23.3395) with tilt (0 0 0)
WARNING: Resetting reneighboring criteria during minimization (../min.cpp:168)
Ewald initialization ...
  G vector (1/distance) = 0.365032
  estimated absolute RMS force accuracy = 1.95788e-05
  estimated relative force accuracy = 1.35968e-06
  KSpace vectors: actual max1d max3d = 2084 10 4630
                  kxmax kymax kzmax  = 10 10 10
Memory usage per processor = 4.56189 Mbytes
Step Temp E_pair E_mol TotEng Press 
     282           10   -18273.532            0    -18272.23   -14800.695 
     295           10   -18273.596            0   -18272.295    -12479.56 
Loop time of 0.202727 on 12 procs for 13 steps with 1008 atoms

99.8% CPU use with 12 MPI tasks x no OpenMP threads

Minimization stats:
  Stopping criterion = linesearch alpha is zero
  Energy initial, next-to-last, final = 
        -18273.5318928     -18273.5964287     -18273.5964287
  Force two-norm initial, final = 1.23122 0.160669
  Force max component initial, final = 0.105408 0.0168724
  Final line search alpha, max atom move = 4.76837e-07 8.0454e-09
  Iterations, force evaluations = 13 67

MPI task timing breakdown:
Section |  min time  |  avg time  |  max time  |%varavg| %total
---------------------------------------------------------------
Pair    | 0.069421   | 0.076564   | 0.08003    |   1.0 | 37.77
Kspace  | 0.11111    | 0.11301    | 0.11472    |   0.3 | 55.74
Neigh   | 0          | 0          | 0          |   0.0 |  0.00
Comm    | 0.008539   | 0.011866   | 0.017835   |   2.4 |  5.85
Output  | 0          | 0          | 0          |   0.0 |  0.00
Modify  | 0          | 0          | 0          |   0.0 |  0.00
Other   |            | 0.001289   |            |       |  0.64

Nlocal:    84 ave 88 max 77 min
Histogram: 1 0 1 0 0 2 3 1 1 3
Nghost:    2595 ave 2622 max 2567 min
Histogram: 2 0 0 3 1 1 1 1 1 2
Neighs:    18574.2 ave 19475 max 16956 min
Histogram: 1 0 1 0 0 2 3 1 2 2

Total # of neighbors = 222890
Ave neighs/atom = 221.121
Neighbor list builds = 0
Dangerous builds = 0
  triclinic box = (0 0 -0.0582517) to (23.3007 23.3007 23.3589) with tilt (0 0 0)
WARNING: Resetting reneighboring criteria during minimization (../min.cpp:168)
Ewald initialization ...
  G vector (1/distance) = 0.365021
  estimated absolute RMS force accuracy = 1.96704e-05
  estimated relative force accuracy = 1.36604e-06
  KSpace vectors: actual max1d max3d = 2084 10 4630
                  kxmax kymax kzmax  = 10 10 10
Memory usage per processor = 4.56189 Mbytes
Step Temp E_pair E_mol TotEng Press 
     295           10   -18273.216            0   -18271.915   -18154.681 
     300           10   -18273.337            0   -18272.035   -15276.028 
     314           10   -18273.368            0   -18272.067   -14520.199 
Loop time of 0.356293 on 12 procs for 19 steps with 1008 atoms

99.9% CPU use with 12 MPI tasks x no OpenMP threads

Minimization stats:
  Stopping criterion = linesearch alpha is zero
  Energy initial, next-to-last, final = 
        -18273.2164953     -18273.3683565     -18273.3683565
  Force two-norm initial, final = 1.83629 0.193001
  Force max component initial, final = 0.156662 0.0180841
  Final line search alpha, max atom move = 2.38419e-07 4.31158e-09
  Iterations, force evaluations = 19 119

MPI task timing breakdown:
Section |  min time  |  avg time  |  max time  |%varavg| %total
---------------------------------------------------------------
Pair    | 0.12339    | 0.13453    | 0.13988    |   1.2 | 37.76
Kspace  | 0.19466    | 0.19878    | 0.20236    |   0.5 | 55.79
Neigh   | 0          | 0          | 0          |   0.0 |  0.00
Comm    | 0.015064   | 0.020834   | 0.031186   |   3.1 |  5.85
Output  | 3.8147e-05 | 3.9856e-05 | 4.7207e-05 |   0.0 |  0.01
Modify  | 0          | 0          | 0          |   0.0 |  0.00
Other   |            | 0.00211    |            |       |  0.59

Nlocal:    84 ave 88 max 77 min
Histogram: 1 0 1 0 0 2 3 1 1 3
Nghost:    2589.25 ave 2616 max 2562 min
Histogram: 2 0 1 2 1 2 0 1 2 1
Neighs:    18541.8 ave 19444 max 16922 min
Histogram: 1 0 1 0 0 2 3 1 2 2

Total # of neighbors = 222502
Ave neighs/atom = 220.736
Neighbor list builds = 0
Dangerous builds = 0
  triclinic box = (0 0 0) to (23.3007 23.3007 23.3007) with tilt (-0.116503 0 0)
WARNING: Resetting reneighboring criteria during minimization (../min.cpp:168)
Ewald initialization ...
  G vector (1/distance) = 0.365055
  estimated absolute RMS force accuracy = 1.94166e-05
  estimated relative force accuracy = 1.34841e-06
  KSpace vectors: actual max1d max3d = 2079 10 4630
                  kxmax kymax kzmax  = 10 10 10
Memory usage per processor = 4.56189 Mbytes
Step Temp E_pair E_mol TotEng Press 
     314           10   -18273.789            0   -18272.487   -7963.4117 
     326           10   -18273.844            0   -18272.542   -7886.0879 
Loop time of 0.19602 on 12 procs for 12 steps with 1008 atoms

99.9% CPU use with 12 MPI tasks x no OpenMP threads

Minimization stats:
  Stopping criterion = linesearch alpha is zero
  Energy initial, next-to-last, final = 
        -18273.7885559     -18273.8435768     -18273.8435768
  Force two-norm initial, final = 1.20909 0.146141
  Force max component initial, final = 0.127989 0.0146183
  Final line search alpha, max atom move = 4.76837e-07 6.97056e-09
  Iterations, force evaluations = 12 65

MPI task timing breakdown:
Section |  min time  |  avg time  |  max time  |%varavg| %total
---------------------------------------------------------------
Pair    | 0.067521   | 0.074408   | 0.078033   |   1.0 | 37.96
Kspace  | 0.10745    | 0.10901    | 0.11083    |   0.3 | 55.61
Neigh   | 0          | 0          | 0          |   0.0 |  0.00
Comm    | 0.0082221  | 0.011356   | 0.017034   |   2.3 |  5.79
Output  | 0          | 0          | 0          |   0.0 |  0.00
Modify  | 0          | 0          | 0          |   0.0 |  0.00
Other   |            | 0.001246   |            |       |  0.64

Nlocal:    84 ave 88 max 77 min
Histogram: 1 0 1 0 0 2 3 1 1 3
Nghost:    2599.5 ave 2626 max 2572 min
Histogram: 2 0 2 0 1 3 0 0 3 1
Neighs:    18636.4 ave 19540 max 17016 min
Histogram: 1 0 1 0 0 2 3 1 2 2

Total # of neighbors = 223637
Ave neighs/atom = 221.862
Neighbor list builds = 0
Dangerous builds = 0
  triclinic box = (0 0 0) to (23.3007 23.3007 23.3007) with tilt (-0.077661 0 0)
WARNING: Resetting reneighboring criteria during minimization (../min.cpp:168)
Ewald initialization ...
  G vector (1/distance) = 0.365055
  estimated absolute RMS force accuracy = 1.94166e-05
  estimated relative force accuracy = 1.34841e-06
  KSpace vectors: actual max1d max3d = 2081 10 4630
                  kxmax kymax kzmax  = 10 10 10
Memory usage per processor = 4.56189 Mbytes
Step Temp E_pair E_mol TotEng Press 
     326           10   -18273.861            0   -18272.559   -7975.8386 
     336           10   -18273.884            0   -18272.583   -7921.0501 
Loop time of 0.184246 on 12 procs for 10 steps with 1008 atoms

99.7% CPU use with 12 MPI tasks x no OpenMP threads

Minimization stats:
  Stopping criterion = linesearch alpha is zero
  Energy initial, next-to-last, final = 
        -18273.8605568     -18273.8844393     -18273.8844393
  Force two-norm initial, final = 0.80599 0.119184
  Force max component initial, final = 0.085229 0.00900007
  Final line search alpha, max atom move = 4.76837e-07 4.29157e-09
  Iterations, force evaluations = 10 61

MPI task timing breakdown:
Section |  min time  |  avg time  |  max time  |%varavg| %total
---------------------------------------------------------------
Pair    | 0.063886   | 0.06965    | 0.073142   |   0.9 | 37.80
Kspace  | 0.10083    | 0.10285    | 0.10472    |   0.3 | 55.82
Neigh   | 0          | 0          | 0          |   0.0 |  0.00
Comm    | 0.0078537  | 0.010583   | 0.015704   |   2.2 |  5.74
Output  | 0          | 0          | 0          |   0.0 |  0.00
Modify  | 0          | 0          | 0          |   0.0 |  0.00
Other   |            | 0.001165   |            |       |  0.63

Nlocal:    84 ave 88 max 77 min
Histogram: 1 0 1 0 0 2 3 1 1 3
Nghost:    2598.5 ave 2626 max 2570 min
Histogram: 2 0 2 0 1 3 0 0 3 1
Neighs:    18635.2 ave 19535 max 17023 min
Histogram: 1 0 1 0 0 2 3 1 2 2

Total # of neighbors = 223622
Ave neighs/atom = 221.847
Neighbor list builds = 0
Dangerous builds = 0
  triclinic box = (0 0 0) to (23.3007 23.3007 23.3007) with tilt (-0.038842 0 0)
WARNING: Resetting reneighboring criteria during minimization (../min.cpp:168)
Ewald initialization ...
  G vector (1/distance) = 0.365055
  estimated absolute RMS force accuracy = 1.94166e-05
  estimated relative force accuracy = 1.34841e-06
  KSpace vectors: actual max1d max3d = 2082 10 4630
                  kxmax kymax kzmax  = 10 10 10
Memory usage per processor = 4.56189 Mbytes
Step Temp E_pair E_mol TotEng Press 
     336           10   -18273.905            0   -18272.603    -7983.759 
     339           10   -18273.909            0   -18272.607   -7964.9561 
Loop time of 0.148474 on 12 procs for 3 steps with 1008 atoms

99.9% CPU use with 12 MPI tasks x no OpenMP threads

Minimization stats:
  Stopping criterion = linesearch alpha is zero
  Energy initial, next-to-last, final = 
        -18273.9049005     -18273.9091174     -18273.9091174
  Force two-norm initial, final = 0.403216 0.193156
  Force max component initial, final = 0.0425998 0.0155244
  Final line search alpha, max atom move = 2.38419e-07 3.7013e-09
  Iterations, force evaluations = 3 49

MPI task timing breakdown:
Section |  min time  |  avg time  |  max time  |%varavg| %total
---------------------------------------------------------------
Pair    | 0.051129   | 0.055928   | 0.058452   |   0.9 | 37.67
Kspace  | 0.081415   | 0.082874   | 0.084162   |   0.3 | 55.82
Neigh   | 0          | 0          | 0          |   0.0 |  0.00
Comm    | 0.0064776  | 0.0087973  | 0.012731   |   2.0 |  5.93
Output  | 0          | 0          | 0          |   0.0 |  0.00
Modify  | 0          | 0          | 0          |   0.0 |  0.00
Other   |            | 0.0008749  |            |       |  0.59

Nlocal:    84 ave 88 max 77 min
Histogram: 1 0 1 0 0 2 3 1 1 3
Nghost:    2598.5 ave 2626 max 2570 min
Histogram: 2 0 2 0 1 3 0 0 3 1
Neighs:    18634.4 ave 19539 max 17025 min
Histogram: 1 0 1 0 0 2 3 1 2 2

Total # of neighbors = 223613
Ave neighs/atom = 221.838
Neighbor list builds = 0
Dangerous builds = 0
  triclinic box = (0 0 0) to (23.3007 23.3007 23.3007) with tilt (0 0 0)
WARNING: Resetting reneighboring criteria during minimization (../min.cpp:168)
Ewald initialization ...
  G vector (1/distance) = 0.365055
  estimated absolute RMS force accuracy = 1.94166e-05
  estimated relative force accuracy = 1.34841e-06
  KSpace vectors: actual max1d max3d = 2084 10 4630
                  kxmax kymax kzmax  = 10 10 10
Memory usage per processor = 4.56189 Mbytes
Step Temp E_pair E_mol TotEng Press 
     339           10   -18273.917            0   -18272.616   -7986.0765 
     340           10   -18273.917            0   -18272.616   -7986.0765 
Loop time of 0.0708404 on 12 procs for 1 steps with 1008 atoms

100.2% CPU use with 12 MPI tasks x no OpenMP threads

Minimization stats:
  Stopping criterion = linesearch alpha is zero
  Energy initial, next-to-last, final = 
        -18273.9173406     -18273.9173406     -18273.9173406
  Force two-norm initial, final = 0.00473488 0.00473488
  Force max component initial, final = 0.000337705 0.000337705
  Final line search alpha, max atom move = 0.000488281 1.64895e-07
  Iterations, force evaluations = 1 23

MPI task timing breakdown:
Section |  min time  |  avg time  |  max time  |%varavg| %total
---------------------------------------------------------------
Pair    | 0.02452    | 0.026926   | 0.02819    |   0.6 | 38.01
Kspace  | 0.038712   | 0.039435   | 0.04007    |   0.2 | 55.67
Neigh   | 0          | 0          | 0          |   0.0 |  0.00
Comm    | 0.0028973  | 0.0040531  | 0.0061533  |   1.4 |  5.72
Output  | 0          | 0          | 0          |   0.0 |  0.00
Modify  | 0          | 0          | 0          |   0.0 |  0.00
Other   |            | 0.0004266  |            |       |  0.60

Nlocal:    84 ave 88 max 77 min
Histogram: 1 0 1 0 0 2 3 1 1 3
Nghost:    2598.5 ave 2626 max 2570 min
Histogram: 2 0 2 0 1 3 0 0 3 1
Neighs:    18636.2 ave 19536 max 17026 min
Histogram: 1 0 1 0 0 2 3 1 2 2

Total # of neighbors = 223635
Ave neighs/atom = 221.86
Neighbor list builds = 0
Dangerous builds = 0
  triclinic box = (0 0 0) to (23.3007 23.3007 23.3007) with tilt (0.038842 0 0)
WARNING: Resetting reneighboring criteria during minimization (../min.cpp:168)
Ewald initialization ...
  G vector (1/distance) = 0.365055
  estimated absolute RMS force accuracy = 1.94166e-05
  estimated relative force accuracy = 1.34841e-06
  KSpace vectors: actual max1d max3d = 2082 10 4630
                  kxmax kymax kzmax  = 10 10 10
Memory usage per processor = 4.56189 Mbytes
Step Temp E_pair E_mol TotEng Press 
     340           10   -18273.904            0   -18272.602   -7984.2699 
     344           10   -18273.908            0   -18272.606   -7996.9822 
Loop time of 0.14886 on 12 procs for 4 steps with 1008 atoms

100.0% CPU use with 12 MPI tasks x no OpenMP threads

Minimization stats:
  Stopping criterion = linesearch alpha is zero
  Energy initial, next-to-last, final = 
        -18273.9039183     -18273.9078418     -18273.9078418
  Force two-norm initial, final = 0.402983 0.154014
  Force max component initial, final = 0.0423843 0.0137778
  Final line search alpha, max atom move = 4.76837e-07 6.56979e-09
  Iterations, force evaluations = 4 49

MPI task timing breakdown:
Section |  min time  |  avg time  |  max time  |%varavg| %total
---------------------------------------------------------------
Pair    | 0.05144    | 0.056359   | 0.059111   |   0.8 | 37.86
Kspace  | 0.081394   | 0.082729   | 0.083962   |   0.3 | 55.58
Neigh   | 0          | 0          | 0          |   0.0 |  0.00
Comm    | 0.0065854  | 0.008867   | 0.013077   |   2.0 |  5.96
Output  | 0          | 0          | 0          |   0.0 |  0.00
Modify  | 0          | 0          | 0          |   0.0 |  0.00
Other   |            | 0.0009049  |            |       |  0.61

Nlocal:    84 ave 88 max 77 min
Histogram: 1 0 1 0 0 2 3 1 1 3
Nghost:    2598.5 ave 2626 max 2570 min
Histogram: 2 0 2 0 1 3 0 0 3 1
Neighs:    18636.4 ave 19539 max 17020 min
Histogram: 1 0 1 0 0 2 3 1 2 2

Total # of neighbors = 223637
Ave neighs/atom = 221.862
Neighbor list builds = 0
Dangerous builds = 0
  triclinic box = (0 0 0) to (23.3007 23.3007 23.3007) with tilt (0.077661 0 0)
WARNING: Resetting reneighboring criteria during minimization (../min.cpp:168)
Ewald initialization ...
  G vector (1/distance) = 0.365055
  estimated absolute RMS force accuracy = 1.94166e-05
  estimated relative force accuracy = 1.34841e-06
  KSpace vectors: actual max1d max3d = 2081 10 4630
                  kxmax kymax kzmax  = 10 10 10
Memory usage per processor = 4.56189 Mbytes
Step Temp E_pair E_mol TotEng Press 
     344           10   -18273.862            0    -18272.56   -7977.6848 
     350           10   -18273.884            0   -18272.583   -8020.9122 
     360           10   -18273.887            0   -18272.586   -8031.0464 
Loop time of 0.225476 on 12 procs for 16 steps with 1008 atoms

99.9% CPU use with 12 MPI tasks x no OpenMP threads

Minimization stats:
  Stopping criterion = linesearch alpha is zero
  Energy initial, next-to-last, final = 
         -18273.861676     -18273.8873906     -18273.8873906
  Force two-norm initial, final = 0.805841 0.0655028
  Force max component initial, final = 0.0846955 0.00621653
  Final line search alpha, max atom move = 1.90735e-06 1.18571e-08
  Iterations, force evaluations = 16 75

MPI task timing breakdown:
Section |  min time  |  avg time  |  max time  |%varavg| %total
---------------------------------------------------------------
Pair    | 0.077933   | 0.085301   | 0.088315   |   1.0 | 37.83
Kspace  | 0.12319    | 0.12538    | 0.12721    |   0.3 | 55.61
Neigh   | 0          | 0          | 0          |   0.0 |  0.00
Comm    | 0.0097458  | 0.013305   | 0.01978    |   2.4 |  5.90
Output  | 2.5034e-05 | 2.6107e-05 | 3.4094e-05 |   0.0 |  0.01
Modify  | 0          | 0          | 0          |   0.0 |  0.00
Other   |            | 0.00146    |            |       |  0.65

Nlocal:    84 ave 88 max 77 min
Histogram: 1 0 1 0 0 2 3 1 1 3
Nghost:    2598.5 ave 2626 max 2570 min
Histogram: 2 0 2 0 1 3 0 0 3 1
Neighs:    18638.1 ave 19536 max 17020 min
Histogram: 1 0 1 0 0 2 3 1 2 2

Total # of neighbors = 223657
Ave neighs/atom = 221.882
Neighbor list builds = 0
Dangerous builds = 0
  triclinic box = (0 0 0) to (23.3007 23.3007 23.3007) with tilt (0.116503 0 0)
WARNING: Resetting reneighboring criteria during minimization (../min.cpp:168)
Ewald initialization ...
  G vector (1/distance) = 0.365055
  estimated absolute RMS force accuracy = 1.94166e-05
  estimated relative force accuracy = 1.34841e-06
  KSpace vectors: actual max1d max3d = 2079 10 4630
                  kxmax kymax kzmax  = 10 10 10
Memory usage per processor = 4.56189 Mbytes
Step Temp E_pair E_mol TotEng Press 
     360           10   -18273.793            0   -18272.491   -7966.7023 
     378           10   -18273.849            0   -18272.547   -8061.6775 
Loop time of 0.286907 on 12 procs for 18 steps with 1008 atoms

100.0% CPU use with 12 MPI tasks x no OpenMP threads

Minimization stats:
  Stopping criterion = linesearch alpha is zero
  Energy initial, next-to-last, final = 
        -18273.7925109     -18273.8487939     -18273.8487939
  Force two-norm initial, final = 1.20901 0.0818602
  Force max component initial, final = 0.12693 0.00784428
  Final line search alpha, max atom move = 9.53674e-07 7.48089e-09
  Iterations, force evaluations = 18 97

MPI task timing breakdown:
Section |  min time  |  avg time  |  max time  |%varavg| %total
---------------------------------------------------------------
Pair    | 0.099069   | 0.10935    | 0.11419    |   1.2 | 38.11
Kspace  | 0.15635    | 0.15943    | 0.1623     |   0.4 | 55.57
Neigh   | 0          | 0          | 0          |   0.0 |  0.00
Comm    | 0.011686   | 0.016336   | 0.024589   |   2.8 |  5.69
Output  | 0          | 0          | 0          |   0.0 |  0.00
Modify  | 0          | 0          | 0          |   0.0 |  0.00
Other   |            | 0.001789   |            |       |  0.62

Nlocal:    84 ave 88 max 77 min
Histogram: 1 0 1 0 0 2 3 1 1 3
Nghost:    2599.5 ave 2626 max 2572 min
Histogram: 2 0 2 0 1 3 0 0 3 1
Neighs:    18637.7 ave 19530 max 17022 min
Histogram: 1 0 1 0 0 2 3 1 2 2

Total # of neighbors = 223652
Ave neighs/atom = 221.877
Neighbor list builds = 0
Dangerous builds = 0
  triclinic box = (0 0 0) to (23.3007 23.3007 23.3007) with tilt (0 -0.116503 0)
WARNING: Resetting reneighboring criteria during minimization (../min.cpp:168)
Ewald initialization ...
  G vector (1/distance) = 0.365055
  estimated absolute RMS force accuracy = 1.94166e-05
  estimated relative force accuracy = 1.34841e-06
  KSpace vectors: actual max1d max3d = 2079 10 4630
                  kxmax kymax kzmax  = 10 10 10
Memory usage per processor = 4.56189 Mbytes
Step Temp E_pair E_mol TotEng Press 
     378           10   -18273.736            0   -18272.434   -7862.2356 
     398           10   -18273.796            0   -18272.494    -7945.222 
Loop time of 0.237519 on 12 procs for 20 steps with 1008 atoms

99.9% CPU use with 12 MPI tasks x no OpenMP threads

Minimization stats:
  Stopping criterion = linesearch alpha is zero
  Energy initial, next-to-last, final = 
        -18273.7361267     -18273.7958187     -18273.7958187
  Force two-norm initial, final = 1.22817 0.0834517
  Force max component initial, final = 0.104077 0.0102919
  Final line search alpha, max atom move = 9.53674e-07 9.81509e-09
  Iterations, force evaluations = 20 79

MPI task timing breakdown:
Section |  min time  |  avg time  |  max time  |%varavg| %total
---------------------------------------------------------------
Pair    | 0.081783   | 0.089638   | 0.094481   |   1.1 | 37.74
Kspace  | 0.13006    | 0.13216    | 0.13416    |   0.3 | 55.64
Neigh   | 0          | 0          | 0          |   0.0 |  0.00
Comm    | 0.0098276  | 0.014111   | 0.021335   |   2.6 |  5.94
Output  | 0          | 0          | 0          |   0.0 |  0.00
Modify  | 0          | 0          | 0          |   0.0 |  0.00
Other   |            | 0.001607   |            |       |  0.68

Nlocal:    84 ave 88 max 77 min
Histogram: 1 0 1 0 0 2 3 1 1 3
Nghost:    2599.5 ave 2626 max 2572 min
Histogram: 2 0 2 0 1 3 0 0 3 1
Neighs:    18637.6 ave 19541 max 17022 min
Histogram: 1 0 1 0 0 2 3 1 2 2

Total # of neighbors = 223651
Ave neighs/atom = 221.876
Neighbor list builds = 0
Dangerous builds = 0
  triclinic box = (0 0 0) to (23.3007 23.3007 23.3007) with tilt (0 -0.077661 0)
WARNING: Resetting reneighboring criteria during minimization (../min.cpp:168)
Ewald initialization ...
  G vector (1/distance) = 0.365055
  estimated absolute RMS force accuracy = 1.94166e-05
  estimated relative force accuracy = 1.34841e-06
  KSpace vectors: actual max1d max3d = 2081 10 4630
                  kxmax kymax kzmax  = 10 10 10
Memory usage per processor = 4.56189 Mbytes
Step Temp E_pair E_mol TotEng Press 
     398           10   -18273.824            0   -18272.522   -7908.2251 
     400           10   -18273.839            0   -18272.538   -7943.3411 
     412           10   -18273.849            0   -18272.548   -7964.5738 
Loop time of 0.202251 on 12 procs for 14 steps with 1008 atoms

99.9% CPU use with 12 MPI tasks x no OpenMP threads

Minimization stats:
  Stopping criterion = linesearch alpha is zero
  Energy initial, next-to-last, final = 
        -18273.8238307     -18273.8493893     -18273.8493893
  Force two-norm initial, final = 0.8187 0.0909367
  Force max component initial, final = 0.069254 0.00834343
  Final line search alpha, max atom move = 9.53674e-07 7.95691e-09
  Iterations, force evaluations = 14 67

MPI task timing breakdown:
Section |  min time  |  avg time  |  max time  |%varavg| %total
---------------------------------------------------------------
Pair    | 0.069133   | 0.076128   | 0.080308   |   1.0 | 37.64
Kspace  | 0.11079    | 0.11299    | 0.11481    |   0.4 | 55.87
Neigh   | 0          | 0          | 0          |   0.0 |  0.00
Comm    | 0.0082958  | 0.011815   | 0.017941   |   2.4 |  5.84
Output  | 2.4796e-05 | 2.6027e-05 | 3.4809e-05 |   0.1 |  0.01
Modify  | 0          | 0          | 0          |   0.0 |  0.00
Other   |            | 0.001291   |            |       |  0.64

Nlocal:    84 ave 88 max 77 min
Histogram: 1 0 1 0 0 2 3 1 1 3
Nghost:    2598.5 ave 2626 max 2570 min
Histogram: 2 0 2 0 1 3 0 0 3 1
Neighs:    18636.9 ave 19539 max 17026 min
Histogram: 1 0 1 0 0 2 3 1 2 2

Total # of neighbors = 223643
Ave neighs/atom = 221.868
Neighbor list builds = 0
Dangerous builds = 0
  triclinic box = (0 0 0) to (23.3007 23.3007 23.3007) with tilt (0 -0.038842 0)
WARNING: Resetting reneighboring criteria during minimization (../min.cpp:168)
Ewald initialization ...
  G vector (1/distance) = 0.365055
  estimated absolute RMS force accuracy = 1.94166e-05
  estimated relative force accuracy = 1.34841e-06
  KSpace vectors: actual max1d max3d = 2082 10 4630
                  kxmax kymax kzmax  = 10 10 10
Memory usage per processor = 4.56189 Mbytes
Step Temp E_pair E_mol TotEng Press 
     412           10   -18273.884            0   -18272.582   -7949.4281 
     418           10    -18273.89            0   -18272.588   -7958.2533 
Loop time of 0.153777 on 12 procs for 6 steps with 1008 atoms

100.0% CPU use with 12 MPI tasks x no OpenMP threads

Minimization stats:
  Stopping criterion = linesearch alpha is zero
  Energy initial, next-to-last, final = 
        -18273.8839171     -18273.8897664     -18273.8897664
  Force two-norm initial, final = 0.409481 0.104176
  Force max component initial, final = 0.0345512 0.0120372
  Final line search alpha, max atom move = 9.53674e-07 1.14796e-08
  Iterations, force evaluations = 6 51

MPI task timing breakdown:
Section |  min time  |  avg time  |  max time  |%varavg| %total
---------------------------------------------------------------
Pair    | 0.052497   | 0.057954   | 0.060394   |   0.9 | 37.69
Kspace  | 0.083978   | 0.085807   | 0.08707    |   0.3 | 55.80
Neigh   | 0          | 0          | 0          |   0.0 |  0.00
Comm    | 0.0068159  | 0.0091171  | 0.013453   |   2.0 |  5.93
Output  | 0          | 0          | 0          |   0.0 |  0.00
Modify  | 0          | 0          | 0          |   0.0 |  0.00
Other   |            | 0.000899   |            |       |  0.58

Nlocal:    84 ave 88 max 77 min
Histogram: 1 0 1 0 0 2 3 1 1 3
Nghost:    2598.5 ave 2626 max 2570 min
Histogram: 2 0 2 0 1 3 0 0 3 1
Neighs:    18635.8 ave 19540 max 17024 min
Histogram: 1 0 1 0 0 2 3 1 2 2

Total # of neighbors = 223629
Ave neighs/atom = 221.854
Neighbor list builds = 0
Dangerous builds = 0
  triclinic box = (0 0 0) to (23.3007 23.3007 23.3007) with tilt (0 0 0)
WARNING: Resetting reneighboring criteria during minimization (../min.cpp:168)
Ewald initialization ...
  G vector (1/distance) = 0.365055
  estimated absolute RMS force accuracy = 1.94166e-05
  estimated relative force accuracy = 1.34841e-06
  KSpace vectors: actual max1d max3d = 2084 10 4630
                  kxmax kymax kzmax  = 10 10 10
Memory usage per processor = 4.56189 Mbytes
Step Temp E_pair E_mol TotEng Press 
     418           10   -18273.917            0   -18272.616   -7986.0765 
     419           10   -18273.917            0   -18272.616   -7986.0765 
Loop time of 0.0711993 on 12 procs for 1 steps with 1008 atoms

99.8% CPU use with 12 MPI tasks x no OpenMP threads

Minimization stats:
  Stopping criterion = linesearch alpha is zero
  Energy initial, next-to-last, final = 
        -18273.9173406     -18273.9173406     -18273.9173406
  Force two-norm initial, final = 0.00473488 0.00473488
  Force max component initial, final = 0.000337705 0.000337705
  Final line search alpha, max atom move = 0.000488281 1.64895e-07
  Iterations, force evaluations = 1 23

MPI task timing breakdown:
Section |  min time  |  avg time  |  max time  |%varavg| %total
---------------------------------------------------------------
Pair    | 0.024835   | 0.026972   | 0.028266   |   0.5 | 37.88
Kspace  | 0.039155   | 0.039789   | 0.040428   |   0.2 | 55.88
Neigh   | 0          | 0          | 0          |   0.0 |  0.00
Comm    | 0.002898   | 0.0040198  | 0.0060372  |   1.4 |  5.65
Output  | 0          | 0          | 0          |   0.0 |  0.00
Modify  | 0          | 0          | 0          |   0.0 |  0.00
Other   |            | 0.000418   |            |       |  0.59

Nlocal:    84 ave 88 max 77 min
Histogram: 1 0 1 0 0 2 3 1 1 3
Nghost:    2598.5 ave 2626 max 2570 min
Histogram: 2 0 2 0 1 3 0 0 3 1
Neighs:    18636.2 ave 19536 max 17026 min
Histogram: 1 0 1 0 0 2 3 1 2 2

Total # of neighbors = 223635
Ave neighs/atom = 221.86
Neighbor list builds = 0
Dangerous builds = 0
  triclinic box = (0 0 0) to (23.3007 23.3007 23.3007) with tilt (0 0.038842 0)
WARNING: Resetting reneighboring criteria during minimization (../min.cpp:168)
Ewald initialization ...
  G vector (1/distance) = 0.365055
  estimated absolute RMS force accuracy = 1.94166e-05
  estimated relative force accuracy = 1.34841e-06
  KSpace vectors: actual max1d max3d = 2082 10 4630
                  kxmax kymax kzmax  = 10 10 10
Memory usage per processor = 4.56189 Mbytes
Step Temp E_pair E_mol TotEng Press 
     419           10   -18273.923            0   -18272.621   -8017.7772 
     429           10   -18273.929            0   -18272.627   -7988.9648 
Loop time of 0.278258 on 12 procs for 10 steps with 1008 atoms

99.8% CPU use with 12 MPI tasks x no OpenMP threads

Minimization stats:
  Stopping criterion = linesearch alpha is zero
  Energy initial, next-to-last, final = 
        -18273.9226857     -18273.9287449     -18273.9287449
  Force two-norm initial, final = 0.409549 0.0659841
  Force max component initial, final = 0.0345855 0.00568215
  Final line search alpha, max atom move = 1.90735e-06 1.08378e-08
  Iterations, force evaluations = 10 93

MPI task timing breakdown:
Section |  min time  |  avg time  |  max time  |%varavg| %total
---------------------------------------------------------------
Pair    | 0.0949     | 0.10508    | 0.11035    |   1.2 | 37.76
Kspace  | 0.15307    | 0.15554    | 0.1581     |   0.4 | 55.90
Neigh   | 0          | 0          | 0          |   0.0 |  0.00
Comm    | 0.011837   | 0.016017   | 0.023606   |   2.7 |  5.76
Output  | 0          | 0          | 0          |   0.0 |  0.00
Modify  | 0          | 0          | 0          |   0.0 |  0.00
Other   |            | 0.001622   |            |       |  0.58

Nlocal:    84 ave 88 max 77 min
Histogram: 1 0 1 0 0 2 3 1 1 3
Nghost:    2598.5 ave 2626 max 2570 min
Histogram: 2 0 2 0 1 3 0 0 3 1
Neighs:    18635.7 ave 19539 max 17021 min
Histogram: 1 0 1 0 0 2 3 1 2 2

Total # of neighbors = 223628
Ave neighs/atom = 221.853
Neighbor list builds = 0
Dangerous builds = 0
  triclinic box = (0 0 0) to (23.3007 23.3007 23.3007) with tilt (0 0.077661 0)
WARNING: Resetting reneighboring criteria during minimization (../min.cpp:168)
Ewald initialization ...
  G vector (1/distance) = 0.365055
  estimated absolute RMS force accuracy = 1.94166e-05
  estimated relative force accuracy = 1.34841e-06
  KSpace vectors: actual max1d max3d = 2081 10 4630
                  kxmax kymax kzmax  = 10 10 10
Memory usage per processor = 4.56189 Mbytes
Step Temp E_pair E_mol TotEng Press 
     429           10     -18273.9            0   -18272.598   -8044.5087 
     440           10   -18273.923            0   -18272.622   -7992.6845 
Loop time of 0.188729 on 12 procs for 11 steps with 1008 atoms

100.1% CPU use with 12 MPI tasks x no OpenMP threads

Minimization stats:
  Stopping criterion = linesearch alpha is zero
  Energy initial, next-to-last, final = 
        -18273.8995045     -18273.9231808     -18273.9231808
  Force two-norm initial, final = 0.818808 0.120287
  Force max component initial, final = 0.0689743 0.0113038
  Final line search alpha, max atom move = 4.76837e-07 5.39007e-09
  Iterations, force evaluations = 11 63

MPI task timing breakdown:
Section |  min time  |  avg time  |  max time  |%varavg| %total
---------------------------------------------------------------
Pair    | 0.063832   | 0.071232   | 0.074559   |   1.0 | 37.74
Kspace  | 0.10351    | 0.10538    | 0.10759    |   0.4 | 55.84
Neigh   | 0          | 0          | 0          |   0.0 |  0.00
Comm    | 0.0080471  | 0.010908   | 0.016093   |   2.3 |  5.78
Output  | 0          | 0          | 0          |   0.0 |  0.00
Modify  | 0          | 0          | 0          |   0.0 |  0.00
Other   |            | 0.001209   |            |       |  0.64

Nlocal:    84 ave 88 max 77 min
Histogram: 1 0 1 0 0 2 3 1 1 3
Nghost:    2598.5 ave 2626 max 2570 min
Histogram: 2 0 2 0 1 3 0 0 3 1
Neighs:    18636.2 ave 19539 max 17020 min
Histogram: 1 0 1 0 0 2 3 1 2 2

Total # of neighbors = 223634
Ave neighs/atom = 221.859
Neighbor list builds = 0
Dangerous builds = 0
  triclinic box = (0 0 0) to (23.3007 23.3007 23.3007) with tilt (0 0.116503 0)
WARNING: Resetting reneighboring criteria during minimization (../min.cpp:168)
Ewald initialization ...
  G vector (1/distance) = 0.365055
  estimated absolute RMS force accuracy = 1.94166e-05
  estimated relative force accuracy = 1.34841e-06
  KSpace vectors: actual max1d max3d = 2079 10 4630
                  kxmax kymax kzmax  = 10 10 10
Memory usage per processor = 4.56189 Mbytes
Step Temp E_pair E_mol TotEng Press 
     440           10   -18273.847            0   -18272.546   -8066.1208 
     450           10     -18273.9            0   -18272.598   -7997.4559 
     462           10   -18273.905            0   -18272.603   -8000.3504 
Loop time of 0.244505 on 12 procs for 22 steps with 1008 atoms

100.2% CPU use with 12 MPI tasks x no OpenMP threads

Minimization stats:
  Stopping criterion = linesearch alpha is zero
  Energy initial, next-to-last, final = 
          -18273.84732     -18273.9050864     -18273.9050864
  Force two-norm initial, final = 1.22836 0.0678981
  Force max component initial, final = 0.103285 0.00587586
  Final line search alpha, max atom move = 1.90735e-06 1.12073e-08
  Iterations, force evaluations = 22 81

MPI task timing breakdown:
Section |  min time  |  avg time  |  max time  |%varavg| %total
---------------------------------------------------------------
Pair    | 0.084715   | 0.092534   | 0.096522   |   1.0 | 37.85
Kspace  | 0.13376    | 0.13601    | 0.13748    |   0.3 | 55.63
Neigh   | 0          | 0          | 0          |   0.0 |  0.00
Comm    | 0.010274   | 0.014323   | 0.02139    |   2.5 |  5.86
Output  | 2.5988e-05 | 2.7537e-05 | 3.5048e-05 |   0.0 |  0.01
Modify  | 0          | 0          | 0          |   0.0 |  0.00
Other   |            | 0.001609   |            |       |  0.66

Nlocal:    84 ave 88 max 77 min
Histogram: 1 0 1 0 0 2 3 1 1 3
Nghost:    2599.5 ave 2626 max 2572 min
Histogram: 2 0 2 0 1 3 0 0 3 1
Neighs:    18636.9 ave 19537 max 17023 min
Histogram: 1 0 1 0 0 2 3 1 2 2

Total # of neighbors = 223643
Ave neighs/atom = 221.868
Neighbor list builds = 0
Dangerous builds = 0
  triclinic box = (0 0 0) to (23.3007 23.3007 23.3007) with tilt (0 0 -0.116503)
WARNING: Resetting reneighboring criteria during minimization (../min.cpp:168)
Ewald initialization ...
  G vector (1/distance) = 0.365055
  estimated absolute RMS force accuracy = 1.94166e-05
  estimated relative force accuracy = 1.34841e-06
  KSpace vectors: actual max1d max3d = 2079 10 4630
                  kxmax kymax kzmax  = 10 10 10
Memory usage per processor = 4.56189 Mbytes
Step Temp E_pair E_mol TotEng Press 
     462           10   -18273.859            0   -18272.557   -7947.4031 
     482           10   -18273.926            0   -18272.624   -7849.4344 
Loop time of 0.242207 on 12 procs for 20 steps with 1008 atoms

99.7% CPU use with 12 MPI tasks x no OpenMP threads

Minimization stats:
  Stopping criterion = linesearch alpha is zero
  Energy initial, next-to-last, final = 
        -18273.8588877     -18273.9258038     -18273.9258038
  Force two-norm initial, final = 1.25904 0.111894
  Force max component initial, final = 0.117236 0.0109135
  Final line search alpha, max atom move = 9.53674e-07 1.04079e-08
  Iterations, force evaluations = 20 81

MPI task timing breakdown:
Section |  min time  |  avg time  |  max time  |%varavg| %total
---------------------------------------------------------------
Pair    | 0.082477   | 0.091674   | 0.095707   |   1.1 | 37.85
Kspace  | 0.13235    | 0.13496    | 0.13701    |   0.4 | 55.72
Neigh   | 0          | 0          | 0          |   0.0 |  0.00
Comm    | 0.0099187  | 0.013979   | 0.021152   |   2.6 |  5.77
Output  | 0          | 0          | 0          |   0.0 |  0.00
Modify  | 0          | 0          | 0          |   0.0 |  0.00
Other   |            | 0.001592   |            |       |  0.66

Nlocal:    84 ave 88 max 77 min
Histogram: 1 0 1 0 0 2 3 1 1 3
Nghost:    2598.5 ave 2626 max 2570 min
Histogram: 2 0 2 0 1 3 0 0 3 1
Neighs:    18635.9 ave 19542 max 17015 min
Histogram: 1 0 1 0 0 2 3 1 2 2

Total # of neighbors = 223631
Ave neighs/atom = 221.856
Neighbor list builds = 0
Dangerous builds = 0
  triclinic box = (0 0 0) to (23.3007 23.3007 23.3007) with tilt (0 0 -0.077661)
WARNING: Resetting reneighboring criteria during minimization (../min.cpp:168)
Ewald initialization ...
  G vector (1/distance) = 0.365055
  estimated absolute RMS force accuracy = 1.94166e-05
  estimated relative force accuracy = 1.34841e-06
  KSpace vectors: actual max1d max3d = 2081 10 4630
                  kxmax kymax kzmax  = 10 10 10
Memory usage per processor = 4.56189 Mbytes
Step Temp E_pair E_mol TotEng Press 
     482           10   -18273.904            0   -18272.602    -7964.598 
     493           10   -18273.931            0    -18272.63    -7885.372 
Loop time of 0.188153 on 12 procs for 11 steps with 1008 atoms

100.1% CPU use with 12 MPI tasks x no OpenMP threads

Minimization stats:
  Stopping criterion = linesearch alpha is zero
  Energy initial, next-to-last, final = 
        -18273.9041033     -18273.9314774     -18273.9314774
  Force two-norm initial, final = 0.839422 0.139709
  Force max component initial, final = 0.07815 0.011568
  Final line search alpha, max atom move = 4.76837e-07 5.51603e-09
  Iterations, force evaluations = 11 63

MPI task timing breakdown:
Section |  min time  |  avg time  |  max time  |%varavg| %total
---------------------------------------------------------------
Pair    | 0.065058   | 0.071079   | 0.074046   |   0.9 | 37.78
Kspace  | 0.10372    | 0.10496    | 0.10684    |   0.3 | 55.79
Neigh   | 0          | 0          | 0          |   0.0 |  0.00
Comm    | 0.0079019  | 0.010942   | 0.016361   |   2.3 |  5.82
Output  | 0          | 0          | 0          |   0.0 |  0.00
Modify  | 0          | 0          | 0          |   0.0 |  0.00
Other   |            | 0.001167   |            |       |  0.62

Nlocal:    84 ave 88 max 77 min
Histogram: 1 0 1 0 0 2 3 1 1 3
Nghost:    2598.5 ave 2626 max 2570 min
Histogram: 2 0 2 0 1 3 0 0 3 1
Neighs:    18638.1 ave 19542 max 17017 min
Histogram: 1 0 1 0 0 2 3 1 2 2

Total # of neighbors = 223657
Ave neighs/atom = 221.882
Neighbor list builds = 0
Dangerous builds = 0
  triclinic box = (0 0 0) to (23.3007 23.3007 23.3007) with tilt (0 0 -0.038842)
WARNING: Resetting reneighboring criteria during minimization (../min.cpp:168)
Ewald initialization ...
  G vector (1/distance) = 0.365055
  estimated absolute RMS force accuracy = 1.94166e-05
  estimated relative force accuracy = 1.34841e-06
  KSpace vectors: actual max1d max3d = 2082 10 4630
[...]
        -18273.6400557     -18273.6456535     -18273.6456535
  Force two-norm initial, final = 0.407013 0.0733367
  Force max component initial, final = 0.0320506 0.00593623
  Final line search alpha, max atom move = 1.90735e-06 1.13225e-08
  Iterations, force evaluations = 9 55

MPI task timing breakdown:
Section |  min time  |  avg time  |  max time  |%varavg| %total
---------------------------------------------------------------
Pair    | 0.056667   | 0.062321   | 0.064443   |   0.8 | 38.41
Kspace  | 0.088412   | 0.090389   | 0.091373   |   0.3 | 55.72
Neigh   | 0          | 0          | 0          |   0.0 |  0.00
Comm    | 0.0065985  | 0.0085276  | 0.013154   |   1.9 |  5.26
Output  | 0          | 0          | 0          |   0.0 |  0.00
Modify  | 0          | 0          | 0          |   0.0 |  0.00
Other   |            | 0.0009966  |            |       |  0.61

Nlocal:    84 ave 87 max 77 min
Histogram: 1 0 0 0 0 1 3 1 1 5
Nghost:    2594.25 ave 2623 max 2562 min
Histogram: 2 1 0 1 0 2 3 0 1 2
Neighs:    18637.2 ave 19328 max 17004 min
Histogram: 1 0 0 0 1 0 3 2 1 4

Total # of neighbors = 223646
Ave neighs/atom = 221.871
Neighbor list builds = 0
Dangerous builds = 0
  triclinic box = (0 0 0) to (23.3007 23.3007 23.3007) with tilt (0 0.077661 0)
WARNING: Resetting reneighboring criteria during minimization (../min.cpp:168)
Ewald initialization ...
  G vector (1/distance) = 0.365055
  estimated absolute RMS force accuracy = 1.94166e-05
  estimated relative force accuracy = 1.34841e-06
  KSpace vectors: actual max1d max3d = 2081 10 4630
                  kxmax kymax kzmax  = 10 10 10
Memory usage per processor = 4.56189 Mbytes
Step Temp E_pair E_mol TotEng Press 
     969           10   -18273.621            0   -18272.319   -8403.0508 
     990           10    -18273.65            0   -18272.348   -8356.3281 
Loop time of 0.228465 on 12 procs for 21 steps with 1008 atoms

99.6% CPU use with 12 MPI tasks x no OpenMP threads

Minimization stats:
  Stopping criterion = linesearch alpha is zero
  Energy initial, next-to-last, final = 
        -18273.6207954     -18273.6500518     -18273.6500518
  Force two-norm initial, final = 0.813768 0.0491424
  Force max component initial, final = 0.064037 0.00474766
  Final line search alpha, max atom move = 3.8147e-06 1.81109e-08
  Iterations, force evaluations = 21 77

MPI task timing breakdown:
Section |  min time  |  avg time  |  max time  |%varavg| %total
---------------------------------------------------------------
Pair    | 0.07845    | 0.086853   | 0.090982   |   1.1 | 38.02
Kspace  | 0.12526    | 0.12761    | 0.12969    |   0.4 | 55.86
Neigh   | 0          | 0          | 0          |   0.0 |  0.00
Comm    | 0.0091465  | 0.012474   | 0.019338   |   2.4 |  5.46
Output  | 0          | 0          | 0          |   0.0 |  0.00
Modify  | 0          | 0          | 0          |   0.0 |  0.00
Other   |            | 0.001528   |            |       |  0.67

Nlocal:    84 ave 87 max 77 min
Histogram: 1 0 0 0 0 1 3 1 1 5
Nghost:    2594.25 ave 2623 max 2562 min
Histogram: 2 1 0 1 0 2 3 0 1 2
Neighs:    18637.4 ave 19319 max 17004 min
Histogram: 1 0 0 0 1 0 3 2 1 4

Total # of neighbors = 223649
Ave neighs/atom = 221.874
Neighbor list builds = 0
Dangerous builds = 0
  triclinic box = (0 0 0) to (23.3007 23.3007 23.3007) with tilt (0 0.116503 0)
WARNING: Resetting reneighboring criteria during minimization (../min.cpp:168)
Ewald initialization ...
  G vector (1/distance) = 0.365055
  estimated absolute RMS force accuracy = 1.94166e-05
  estimated relative force accuracy = 1.34841e-06
  KSpace vectors: actual max1d max3d = 2079 10 4630
                  kxmax kymax kzmax  = 10 10 10
Memory usage per processor = 4.56189 Mbytes
Step Temp E_pair E_mol TotEng Press 
     990           10   -18273.579            0   -18272.277   -8424.3265 
    1000           10   -18273.632            0    -18272.33   -8356.5449 
    1003           10   -18273.633            0   -18272.331   -8343.1088 
Loop time of 0.318622 on 12 procs for 13 steps with 1008 atoms

99.8% CPU use with 12 MPI tasks x no OpenMP threads

Minimization stats:
  Stopping criterion = linesearch alpha is zero
  Energy initial, next-to-last, final = 
        -18273.5791147       -18273.63291       -18273.63291
  Force two-norm initial, final = 1.22089 0.158856
  Force max component initial, final = 0.0961188 0.0126024
  Final line search alpha, max atom move = 4.76837e-07 6.00928e-09
  Iterations, force evaluations = 13 107

MPI task timing breakdown:
Section |  min time  |  avg time  |  max time  |%varavg| %total
---------------------------------------------------------------
Pair    | 0.1095     | 0.12145    | 0.12678    |   1.2 | 38.12
Kspace  | 0.17354    | 0.17785    | 0.18032    |   0.6 | 55.82
Neigh   | 0          | 0          | 0          |   0.0 |  0.00
Comm    | 0.01313    | 0.017377   | 0.026762   |   2.7 |  5.45
Output  | 2.5034e-05 | 2.6266e-05 | 3.314e-05  |   0.0 |  0.01
Modify  | 0          | 0          | 0          |   0.0 |  0.00
Other   |            | 0.001913   |            |       |  0.60

Nlocal:    84 ave 87 max 77 min
Histogram: 1 0 0 0 0 1 3 1 1 5
Nghost:    2594.25 ave 2623 max 2562 min
Histogram: 2 1 0 1 0 2 3 0 1 2
Neighs:    18639.2 ave 19318 max 17012 min
Histogram: 1 0 0 0 1 0 3 2 1 4

Total # of neighbors = 223670
Ave neighs/atom = 221.895
Neighbor list builds = 0
Dangerous builds = 0
  triclinic box = (0 0 0) to (23.3007 23.3007 23.3007) with tilt (0 0 -0.116503)
WARNING: Resetting reneighboring criteria during minimization (../min.cpp:168)
Ewald initialization ...
  G vector (1/distance) = 0.365055
  estimated absolute RMS force accuracy = 1.94166e-05
  estimated relative force accuracy = 1.34841e-06
  KSpace vectors: actual max1d max3d = 2079 10 4630
                  kxmax kymax kzmax  = 10 10 10
Memory usage per processor = 4.56189 Mbytes
Step Temp E_pair E_mol TotEng Press 
    1003           10   -18273.536            0   -18272.234    -8309.043 
    1013           10   -18273.592            0    -18272.29   -8254.8954 
Loop time of 0.188769 on 12 procs for 10 steps with 1008 atoms

99.8% CPU use with 12 MPI tasks x no OpenMP threads

Minimization stats:
  Stopping criterion = linesearch alpha is zero
  Energy initial, next-to-last, final = 
        -18273.5361347     -18273.5918819     -18273.5918819
  Force two-norm initial, final = 1.25579 0.228247
  Force max component initial, final = 0.116004 0.0250306
  Final line search alpha, max atom move = 2.38419e-07 5.96777e-09
  Iterations, force evaluations = 10 63

MPI task timing breakdown:
Section |  min time  |  avg time  |  max time  |%varavg| %total
---------------------------------------------------------------
Pair    | 0.065085   | 0.071559   | 0.075067   |   0.9 | 37.91
Kspace  | 0.10349    | 0.1057     | 0.10786    |   0.4 | 56.00
Neigh   | 0          | 0          | 0          |   0.0 |  0.00
Comm    | 0.0082173  | 0.010324   | 0.015436   |   2.0 |  5.47
Output  | 0          | 0          | 0          |   0.0 |  0.00
Modify  | 0          | 0          | 0          |   0.0 |  0.00
Other   |            | 0.001185   |            |       |  0.63

Nlocal:    84 ave 87 max 77 min
Histogram: 1 0 0 0 0 1 3 1 1 5
Nghost:    2594.25 ave 2623 max 2562 min
Histogram: 2 1 0 1 0 2 3 0 1 2
Neighs:    18636.6 ave 19327 max 17001 min
Histogram: 1 0 0 0 1 0 3 2 1 4

Total # of neighbors = 223639
Ave neighs/atom = 221.864
Neighbor list builds = 0
Dangerous builds = 0
  triclinic box = (0 0 0) to (23.3007 23.3007 23.3007) with tilt (0 0 -0.077661)
WARNING: Resetting reneighboring criteria during minimization (../min.cpp:168)
Ewald initialization ...
  G vector (1/distance) = 0.365055
  estimated absolute RMS force accuracy = 1.94166e-05
  estimated relative force accuracy = 1.34841e-06
  KSpace vectors: actual max1d max3d = 2081 10 4630
                  kxmax kymax kzmax  = 10 10 10
Memory usage per processor = 4.56189 Mbytes
Step Temp E_pair E_mol TotEng Press 
    1013           10   -18273.594            0   -18272.293   -8326.7252 
    1023           10    -18273.62            0   -18272.318   -8285.0313 
Loop time of 0.182396 on 12 procs for 10 steps with 1008 atoms

100.0% CPU use with 12 MPI tasks x no OpenMP threads

Minimization stats:
  Stopping criterion = linesearch alpha is zero
  Energy initial, next-to-last, final = 
        -18273.5944095     -18273.6196831     -18273.6196831
  Force two-norm initial, final = 0.83727 0.152436
  Force max component initial, final = 0.0773226 0.0174117
  Final line search alpha, max atom move = 4.76837e-07 8.30253e-09
  Iterations, force evaluations = 10 61

MPI task timing breakdown:
Section |  min time  |  avg time  |  max time  |%varavg| %total
---------------------------------------------------------------
Pair    | 0.063512   | 0.070174   | 0.073138   |   0.9 | 38.47
Kspace  | 0.098362   | 0.10154    | 0.10331    |   0.5 | 55.67
Neigh   | 0          | 0          | 0          |   0.0 |  0.00
Comm    | 0.0074618  | 0.0095544  | 0.014439   |   2.0 |  5.24
Output  | 0          | 0          | 0          |   0.0 |  0.00
Modify  | 0          | 0          | 0          |   0.0 |  0.00
Other   |            | 0.001128   |            |       |  0.62

Nlocal:    84 ave 87 max 77 min
Histogram: 1 0 0 0 0 1 3 1 1 5
Nghost:    2594.25 ave 2623 max 2562 min
Histogram: 2 1 0 1 0 2 3 0 1 2
Neighs:    18635.9 ave 19328 max 17005 min
Histogram: 1 0 0 0 1 0 3 2 1 4

Total # of neighbors = 223631
Ave neighs/atom = 221.856
Neighbor list builds = 0
Dangerous builds = 0
  triclinic box = (0 0 0) to (23.3007 23.3007 23.3007) with tilt (0 0 -0.038842)
WARNING: Resetting reneighboring criteria during minimization (../min.cpp:168)
Ewald initialization ...
  G vector (1/distance) = 0.365055
  estimated absolute RMS force accuracy = 1.94166e-05
  estimated relative force accuracy = 1.34841e-06
  KSpace vectors: actual max1d max3d = 2082 10 4630
                  kxmax kymax kzmax  = 10 10 10
Memory usage per processor = 4.56189 Mbytes
Step Temp E_pair E_mol TotEng Press 
    1023           10   -18273.627            0   -18272.325    -8340.174 
    1028           10   -18273.632            0    -18272.33   -8317.9778 
Loop time of 0.15431 on 12 procs for 5 steps with 1008 atoms

100.2% CPU use with 12 MPI tasks x no OpenMP threads

Minimization stats:
  Stopping criterion = linesearch alpha is zero
  Energy initial, next-to-last, final = 
        -18273.6270462     -18273.6321002     -18273.6321002
  Force two-norm initial, final = 0.418909 0.130859
  Force max component initial, final = 0.0386946 0.0160503
  Final line search alpha, max atom move = 4.76837e-07 7.6534e-09
  Iterations, force evaluations = 5 51

MPI task timing breakdown:
Section |  min time  |  avg time  |  max time  |%varavg| %total
---------------------------------------------------------------
Pair    | 0.052956   | 0.058535   | 0.061709   |   0.9 | 37.93
Kspace  | 0.084486   | 0.08656    | 0.087993   |   0.4 | 56.09
Neigh   | 0          | 0          | 0          |   0.0 |  0.00
Comm    | 0.006088   | 0.0083122  | 0.013098   |   2.0 |  5.39
Output  | 0          | 0          | 0          |   0.0 |  0.00
Modify  | 0          | 0          | 0          |   0.0 |  0.00
Other   |            | 0.0009038  |            |       |  0.59

Nlocal:    84 ave 87 max 77 min
Histogram: 1 0 0 0 0 1 3 1 1 5
Nghost:    2594.25 ave 2623 max 2562 min
Histogram: 2 1 0 1 0 2 3 0 1 2
Neighs:    18635.2 ave 19324 max 16999 min
Histogram: 1 0 0 0 1 0 3 2 1 4

Total # of neighbors = 223623
Ave neighs/atom = 221.848
Neighbor list builds = 0
Dangerous builds = 0
  triclinic box = (0 0 0) to (23.3007 23.3007 23.3007) with tilt (0 0 0)
WARNING: Resetting reneighboring criteria during minimization (../min.cpp:168)
Ewald initialization ...
  G vector (1/distance) = 0.365055
  estimated absolute RMS force accuracy = 1.94166e-05
  estimated relative force accuracy = 1.34841e-06
  KSpace vectors: actual max1d max3d = 2084 10 4630
                  kxmax kymax kzmax  = 10 10 10
Memory usage per processor = 4.56189 Mbytes
Step Temp E_pair E_mol TotEng Press 
    1028           10    -18273.63            0   -18272.329   -8348.4827 
    1032           10    -18273.63            0   -18272.329   -8342.6121 
Loop time of 0.129279 on 12 procs for 4 steps with 1008 atoms

99.6% CPU use with 12 MPI tasks x no OpenMP threads

Minimization stats:
  Stopping criterion = linesearch alpha is zero
  Energy initial, next-to-last, final = 
        -18273.6303662     -18273.6303901     -18273.6303901
  Force two-norm initial, final = 0.00471442 0.00213029
  Force max component initial, final = 0.000333254 0.000360516
  Final line search alpha, max atom move = 0.00195312 7.04132e-07
  Iterations, force evaluations = 4 43

MPI task timing breakdown:
Section |  min time  |  avg time  |  max time  |%varavg| %total
---------------------------------------------------------------
Pair    | 0.044367   | 0.049256   | 0.051373   |   0.8 | 38.10
Kspace  | 0.070055   | 0.072422   | 0.073418   |   0.4 | 56.02
Neigh   | 0          | 0          | 0          |   0.0 |  0.00
Comm    | 0.0050752  | 0.0068633  | 0.010778   |   1.8 |  5.31
Output  | 0          | 0          | 0          |   0.0 |  0.00
Modify  | 0          | 0          | 0          |   0.0 |  0.00
Other   |            | 0.0007378  |            |       |  0.57

Nlocal:    84 ave 87 max 77 min
Histogram: 1 0 0 0 0 1 3 1 1 5
Nghost:    2594.25 ave 2623 max 2562 min
Histogram: 2 1 0 1 0 2 3 0 1 2
Neighs:    18637.1 ave 19326 max 17006 min
Histogram: 1 0 0 0 1 0 3 2 1 4

Total # of neighbors = 223645
Ave neighs/atom = 221.87
Neighbor list builds = 0
Dangerous builds = 0
  triclinic box = (0 0 0) to (23.3007 23.3007 23.3007) with tilt (0 0 0.038842)
WARNING: Resetting reneighboring criteria during minimization (../min.cpp:168)
Ewald initialization ...
  G vector (1/distance) = 0.365055
  estimated absolute RMS force accuracy = 1.94166e-05
  estimated relative force accuracy = 1.34841e-06
  KSpace vectors: actual max1d max3d = 2082 10 4630
                  kxmax kymax kzmax  = 10 10 10
Memory usage per processor = 4.56189 Mbytes
Step Temp E_pair E_mol TotEng Press 
    1032           10   -18273.612            0    -18272.31   -8353.2884 
    1038           10   -18273.617            0   -18272.316   -8367.0587 
Loop time of 0.159249 on 12 procs for 6 steps with 1008 atoms

100.1% CPU use with 12 MPI tasks x no OpenMP threads

Minimization stats:
  Stopping criterion = linesearch alpha is zero
  Energy initial, next-to-last, final = 
        -18273.6115664     -18273.6173646     -18273.6173646
  Force two-norm initial, final = 0.418729 0.115951
  Force max component initial, final = 0.0385242 0.0107844
  Final line search alpha, max atom move = 4.76837e-07 5.14241e-09
  Iterations, force evaluations = 6 53

MPI task timing breakdown:
Section |  min time  |  avg time  |  max time  |%varavg| %total
---------------------------------------------------------------
Pair    | 0.056389   | 0.061131   | 0.063395   |   0.8 | 38.39
Kspace  | 0.086511   | 0.088631   | 0.089808   |   0.4 | 55.66
Neigh   | 0          | 0          | 0          |   0.0 |  0.00
Comm    | 0.0066414  | 0.0085395  | 0.012982   |   1.8 |  5.36
Output  | 0          | 0          | 0          |   0.0 |  0.00
Modify  | 0          | 0          | 0          |   0.0 |  0.00
Other   |            | 0.0009477  |            |       |  0.60

Nlocal:    84 ave 87 max 77 min
Histogram: 1 0 0 0 0 1 3 1 1 5
Nghost:    2594.25 ave 2623 max 2562 min
Histogram: 2 1 0 1 0 2 3 0 1 2
Neighs:    18637.1 ave 19326 max 17006 min
Histogram: 1 0 0 0 1 0 3 2 1 4

Total # of neighbors = 223645
Ave neighs/atom = 221.87
Neighbor list builds = 0
Dangerous builds = 0
  triclinic box = (0 0 0) to (23.3007 23.3007 23.3007) with tilt (0 0 0.077661)
WARNING: Resetting reneighboring criteria during minimization (../min.cpp:168)
Ewald initialization ...
  G vector (1/distance) = 0.365055
  estimated absolute RMS force accuracy = 1.94166e-05
  estimated relative force accuracy = 1.34841e-06
  KSpace vectors: actual max1d max3d = 2081 10 4630
                  kxmax kymax kzmax  = 10 10 10
Memory usage per processor = 4.56189 Mbytes
Step Temp E_pair E_mol TotEng Press 
    1038           10   -18273.565            0   -18272.263   -8353.1921 
    1048           10   -18273.588            0   -18272.287    -8388.992 
Loop time of 0.181476 on 12 procs for 10 steps with 1008 atoms

99.8% CPU use with 12 MPI tasks x no OpenMP threads

Minimization stats:
  Stopping criterion = linesearch alpha is zero
  Energy initial, next-to-last, final = 
        -18273.5649573     -18273.5883077     -18273.5883077
  Force two-norm initial, final = 0.837435 0.152575
  Force max component initial, final = 0.077076 0.0196982
  Final line search alpha, max atom move = 4.76837e-07 9.39284e-09
  Iterations, force evaluations = 10 61

MPI task timing breakdown:
Section |  min time  |  avg time  |  max time  |%varavg| %total
---------------------------------------------------------------
Pair    | 0.062771   | 0.069306   | 0.071778   |   0.9 | 38.19
Kspace  | 0.098811   | 0.10119    | 0.10275    |   0.4 | 55.76
Neigh   | 0          | 0          | 0          |   0.0 |  0.00
Comm    | 0.0077486  | 0.0098419  | 0.014785   |   1.9 |  5.42
Output  | 0          | 0          | 0          |   0.0 |  0.00
Modify  | 0          | 0          | 0          |   0.0 |  0.00
Other   |            | 0.001141   |            |       |  0.63

Nlocal:    84 ave 87 max 77 min
Histogram: 1 0 0 0 0 1 3 1 1 5
Nghost:    2594.25 ave 2623 max 2562 min
Histogram: 2 1 0 1 0 2 3 0 1 2
Neighs:    18637 ave 19327 max 17005 min
Histogram: 1 0 0 0 1 0 3 2 1 4

Total # of neighbors = 223644
Ave neighs/atom = 221.869
Neighbor list builds = 0
Dangerous builds = 0
  triclinic box = (0 0 0) to (23.3007 23.3007 23.3007) with tilt (0 0 0.116503)
WARNING: Resetting reneighboring criteria during minimization (../min.cpp:168)
Ewald initialization ...
  G vector (1/distance) = 0.365055
  estimated absolute RMS force accuracy = 1.94166e-05
  estimated relative force accuracy = 1.34841e-06
  KSpace vectors: actual max1d max3d = 2079 10 4630
                  kxmax kymax kzmax  = 10 10 10
Memory usage per processor = 4.56189 Mbytes
Step Temp E_pair E_mol TotEng Press 
    1048           10   -18273.486            0   -18272.184   -8347.1409 
    1050           10   -18273.522            0   -18272.221     -8391.39 
    1069           10   -18273.552            0   -18272.251    -8359.665 
Loop time of 0.24034 on 12 procs for 21 steps with 1008 atoms

99.8% CPU use with 12 MPI tasks x no OpenMP threads

Minimization stats:
  Stopping criterion = linesearch alpha is zero
  Energy initial, next-to-last, final = 
        -18273.4856821     -18273.5522373     -18273.5522373
  Force two-norm initial, final = 1.25655 0.101115
  Force max component initial, final = 0.115625 0.0107623
  Final line search alpha, max atom move = 9.53674e-07 1.02637e-08
  Iterations, force evaluations = 21 81

MPI task timing breakdown:
Section |  min time  |  avg time  |  max time  |%varavg| %total
---------------------------------------------------------------
Pair    | 0.082911   | 0.091473   | 0.095247   |   1.0 | 38.06
Kspace  | 0.13025    | 0.13427    | 0.13631    |   0.5 | 55.87
Neigh   | 0          | 0          | 0          |   0.0 |  0.00
Comm    | 0.0098519  | 0.012956   | 0.019463   |   2.3 |  5.39
Output  | 2.5988e-05 | 2.6663e-05 | 3.4094e-05 |   0.0 |  0.01
Modify  | 0          | 0          | 0          |   0.0 |  0.00
Other   |            | 0.001613   |            |       |  0.67

Nlocal:    84 ave 87 max 77 min
Histogram: 1 0 0 0 0 1 3 1 1 5
Nghost:    2594.25 ave 2623 max 2562 min
Histogram: 2 1 0 1 0 2 3 0 1 2
Neighs:    18636.2 ave 19326 max 17010 min
Histogram: 1 0 0 0 1 0 3 2 1 4

Total # of neighbors = 223634
Ave neighs/atom = 221.859
Neighbor list builds = 0
Dangerous builds = 0
Total wall time: 0:00:18
