ITEM: TIMESTEP
0
ITEM: NUMBER OF ATOMS
1008
ITEM: BOX BOUNDS xy xz yz pp pp pp
0.0 23.3006801605 0.0
0.0 23.3006801605 0.0
0.0 23.3006801605 0.0
ITEM: ATOMS id type x y z
1 1 4.206054687500000 -7.068135261535645 -8.144371032714844 
2 1 0.102389298379421 6.185031414031982 -1.351214647293091 
3 1 -10.967852592468262 5.540208339691162 -3.268845796585083 
4 1 -1.349041461944580 3.143065690994263 -1.392057895660400 
5 1 5.971697807312012 11.646753311157227 -11.516951560974121 
6 1 -0.011519834399223 -2.468565225601196 10.324558258056641 
7 1 8.076990127563477 0.132461950182915 -3.324333429336548 
8 1 -4.067660331726074 -1.200345754623413 -4.648825645446777 
9 1 -9.695697784423828 10.302728652954102 -1.585590958595276 
10 1 5.179327487945557 -0.262200951576233 -9.652121543884277 
11 1 9.558788299560547 2.144194364547729 7.053324222564697 
12 1 9.064434051513672 -2.906806945800781 4.539440155029297 
13 1 0.734584808349609 3.334896564483643 9.509725570678711 
14 1 -6.767563819885254 4.408404827117920 -1.266256690025330 
15 1 -5.391376972198486 -3.858255386352539 5.450521945953369 
16 1 2.955787181854248 -9.160218238830566 4.391314506530762 
17 1 -10.388652801513672 3.613061428070068 5.793966770172119 
18 1 -9.576967239379883 2.201900005340576 -2.320540904998779 
19 1 -0.897546708583832 -1.653058409690857 4.792698860168457 
20 1 -10.261657714843750 -2.572763681411743 8.295388221740723 
21 1 10.842809677124023 -5.694809913635254 5.217359542846680 
22 1 -0.007987732999027 -7.264574050903320 -3.417263746261597 
23 1 -5.876038074493408 -7.143210411071777 7.312548637390137 
24 1 7.839465618133545 4.726510047912598 9.044906616210938 
25 1 7.338253021240234 -2.564480543136597 9.334552764892578 
26 1 -5.737859725952148 6.560510158538818 6.978369235992432 
27 1 8.136641502380371 -10.838356971740723 2.381899118423462 
28 1 0.196796447038651 10.373666763305664 5.860077857971191 
29 1 -3.065132617950439 -11.037502288818359 -4.616606235504150 
30 1 -6.088332176208496 3.051306962966919 -7.437944889068604 
31 1 -1.380674958229065 5.175187110900879 -7.481806278228760 
32 1 11.605702400207520 6.807636260986328 6.336265087127686 
33 1 4.627796649932861 6.039066791534424 1.448853969573975 
34 1 2.120812177658081 3.372810602188110 0.090062782168388 
35 1 0.423214405775070 -1.589232444763184 -5.534432888031006 
36 1 -10.482713699340820 -11.367926597595215 10.245585441589355 
37 1 11.447672843933105 -0.615027368068695 5.564923286437988 
38 1 -4.615323543548584 1.378378152847290 -1.520691394805908 
39 1 4.430960178375244 -4.094952583312988 -6.164493560791016 
40 1 -7.234730720520020 -4.633847236633301 2.435751914978027 
41 1 -3.261261463165283 -6.877905368804932 -5.245014667510986 
42 1 3.184637784957886 -10.319920539855957 -9.949028015136719 
43 1 -8.442502975463867 5.417491436004639 -9.087687492370605 
44 1 -2.322723150253296 -9.074937820434570 -1.700354218482971 
45 1 -8.390570640563965 10.742711067199707 7.613585948944092 
46 1 0.849138140678406 9.387499809265137 9.612060546875000 
47 1 7.311753749847412 -9.057309150695801 -4.445947647094727 
48 1 4.887291431427002 -8.935673713684082 8.683680534362793 
49 1 3.632510185241699 11.475230216979980 -5.722280502319336 
50 1 -10.772850990295410 -5.665006160736084 2.176499843597412 
51 1 -6.200519084930420 10.646053314208984 5.104369640350342 
52 1 -11.030696868896484 -0.594582259654999 -0.887997269630432 
53 1 -1.956052422523499 0.964842379093170 1.036752581596375 
54 1 -1.387749910354614 -0.609969079494476 -2.264341115951538 
55 1 3.846162796020508 -4.100326061248779 9.872712135314941 
56 1 2.995888233184814 8.227210998535156 -4.141736507415771 
57 1 6.874792098999023 -5.767788410186768 -10.503582954406738 
58 1 3.778285264968872 5.450303554534912 -1.815693020820618 
59 1 3.847730875015259 9.346504211425781 -8.954462051391602 
60 1 0.440547734498978 5.216476440429688 3.035867452621460 
61 1 2.530424118041992 0.890137851238251 -7.297878265380859 
62 1 8.562858581542969 7.586498260498047 -6.037015438079834 
63 1 -1.771620392799377 -5.583609580993652 -0.379446208477020 
64 1 -5.034362792968750 -6.643031597137451 0.669227719306946 
65 1 8.855136871337891 6.110098361968994 -2.769737005233765 
66 1 0.178565293550491 -3.419701576232910 -8.891643524169922 
67 1 5.385985374450684 -3.856775045394897 1.877175927162170 
68 1 9.682166099548340 7.367382526397705 10.871349334716797 
69 1 -11.492341995239258 -9.686255455017090 -2.343211412429810 
70 1 -6.810155868530273 -2.953250885009766 -6.527831077575684 
71 1 -1.001269221305847 9.625394821166992 -6.139270782470703 
72 1 3.844496011734009 1.151046872138977 2.538078069686890 
73 1 -7.480788707733154 0.413586109876633 -5.005878448486328 
74 1 -3.343730449676514 4.562772274017334 -10.434959411621094 
75 1 -10.599658966064453 -6.032587051391602 10.880699157714844 
76 1 3.664966106414795 10.461446762084961 3.740504264831543 
77 1 3.317842006683350 10.079607009887695 -1.437985777854919 
78 1 10.773316383361816 11.194196701049805 0.213449582457542 
79 1 3.999860763549805 -9.798107147216797 -2.865139722824097 
80 1 10.119157791137695 0.642526268959045 -9.658030509948730 
81 1 -9.866102218627930 0.790744781494141 8.445981025695801 
82 1 1.750260114669800 -6.505164623260498 0.061497721821070 
83 1 -2.538631439208984 9.451037406921387 0.300411999225616 
84 1 1.854000329971313 -0.561189413070679 -10.444931983947754 
85 1 -7.859006404876709 -3.053178787231445 10.960417747497559 
86 1 -8.466934204101562 9.482782363891602 1.823494553565979 
87 1 7.622806549072266 8.213653564453125 8.073740005493164 
88 1 -2.779821395874023 1.837552547454834 -6.538311481475830 
89 1 -2.966338872909546 5.345836639404297 4.846062183380127 
90 1 9.648670196533203 -4.270473957061768 -8.503261566162109 
91 1 3.282507181167603 11.457067489624023 6.943739891052246 
92 1 3.632867336273193 1.568254590034485 -3.085301876068115 
93 1 -7.114408493041992 8.114739418029785 10.058733940124512 
94 1 -8.729528427124023 7.698287487030029 5.129791259765625 
95 1 -8.569955825805664 10.284098625183105 -10.448487281799316 
96 1 5.885895252227783 4.731447696685791 -9.650402069091797 
97 1 -2.021807909011841 -9.171229362487793 9.831502914428711 
98 1 10.529472351074219 -7.431057453155518 -0.044017639011145 
99 1 0.358661860227585 -6.275545120239258 10.331691741943359 
100 1 -7.080746173858643 8.080523490905762 -2.012942790985107 
101 1 4.056176185607910 -1.070139288902283 5.594914436340332 
102 1 6.768835544586182 1.975663423538208 11.167811393737793 
103 1 0.494957476854324 -9.830213546752930 7.390938282012939 
104 1 -10.210410118103027 0.953099310398102 -11.291711807250977 
105 1 7.300406455993652 11.138628959655762 -5.591476440429688 
106 1 -9.658441543579102 -1.846545338630676 -4.208165645599365 
107 1 -5.294505119323730 -4.806128978729248 10.053040504455566 
108 1 -1.645006537437439 6.231227397918701 -4.413021087646484 
109 1 -10.456668853759766 8.161178588867188 -8.010765075683594 
110 1 -1.109194397926331 6.444412231445312 10.705071449279785 
111 1 -1.639755606651306 7.825374603271484 -9.379492759704590 
112 1 7.542925357818604 -7.572359085083008 3.957885026931763 
113 1 11.168816566467285 0.594983756542206 -4.751203536987305 
114 1 11.348142623901367 8.932525634765625 -4.407086372375488 
115 1 6.746077537536621 3.536601066589355 -3.066745758056641 
116 1 -7.994252681732178 -7.705822944641113 4.208736419677734 
117 1 -2.341530323028564 -3.699384689331055 7.637938499450684 
118 1 -3.326471090316772 9.037533760070801 6.174940109252930 
119 1 3.661451816558838 -7.095400333404541 -11.643486976623535 
120 1 11.147887229919434 9.639975547790527 8.673863410949707 
121 1 9.868430137634277 4.137393474578857 -5.682794094085693 
122 1 -6.576441764831543 11.270841598510742 -3.949914932250977 
123 1 11.533782958984375 4.027436256408691 8.993782997131348 
124 1 7.524107456207275 -11.475557327270508 8.657892227172852 
125 1 -7.089309692382812 0.633809745311737 11.028057098388672 
126 1 -9.932322502136230 1.443183422088623 3.057329893112183 
127 1 -10.701679229736328 2.770722389221191 -7.667243003845215 
128 1 -2.977750778198242 -0.007848835550249 7.384514808654785 
129 1 2.285597324371338 -6.523327827453613 7.021137237548828 
130 1 -3.916222810745239 -4.257015228271484 -7.811662197113037 
131 1 -3.630754470825195 6.315786838531494 -1.458615660667419 
132 1 4.867878437042236 -7.810224533081055 1.335294246673584 
133 1 -5.371227741241455 7.526601314544678 -9.741309165954590 
134 1 -7.932099819183350 0.428407847881317 -8.552390098571777 
135 1 7.288841247558594 9.554658889770508 -8.941649436950684 
136 1 -8.359989166259766 -8.833958625793457 8.908723831176758 
137 1 -1.573959827423096 -4.044143676757812 -3.648475885391235 
138 1 -7.363821506500244 -0.821020185947418 1.597719311714172 
139 1 -5.113633632659912 -10.794055938720703 8.226342201232910 
140 1 -4.437046527862549 3.741251230239868 -3.810989379882812 
141 1 8.514609336853027 -9.071974754333496 -10.589468955993652 
142 1 1.549636244773865 8.280005455017090 1.366155385971069 
143 1 0.350710302591324 1.680404186248779 3.873208045959473 
144 1 8.741947174072266 10.978936195373535 -2.388369321823120 
145 1 7.306234836578369 -9.218406677246094 -0.841974318027496 
146 1 -11.404723167419434 -2.612241029739380 -11.067884445190430 
147 1 -1.888453125953674 1.217790246009827 10.675259590148926 
148 1 5.716661930084229 0.898509025573730 -0.552309691905975 
149 1 -4.764070034027100 -4.732391357421875 -2.486327409744263 
150 1 6.497013092041016 -2.478129386901855 -1.461137890815735 
151 1 9.568966865539551 10.879156112670898 -11.454670906066895 
152 1 1.050538301467896 -3.050613403320312 -1.141856312751770 
153 1 -1.451477289199829 -2.810018777847290 1.768746852874756 
154 1 5.165415287017822 6.959691047668457 -6.777742385864258 
155 1 9.366051673889160 -1.737973213195801 0.787338316440582 
156 1 -6.523917675018311 2.852321147918701 1.742871165275574 
157 1 5.854070186614990 1.797121882438660 7.570375442504883 
158 1 10.014904975891113 -0.136329948902130 10.076912879943848 
159 1 -7.661172389984131 6.018656253814697 2.029387474060059 
160 1 -3.471077680587769 4.388850212097168 9.157196044921875 
161 1 -6.818008422851562 0.669471919536591 4.908132553100586 
162 1 -3.531037569046021 9.335673332214355 9.771924972534180 
163 1 11.564218521118164 -7.312009811401367 -9.232629776000977 
164 1 -2.303591251373291 -4.790786743164062 -11.141734123229980 
165 1 7.696087837219238 4.045655250549316 0.292210698127747 
166 1 -7.563870906829834 10.744341850280762 -7.060403823852539 
167 1 -5.584434986114502 -8.507695198059082 -3.150334119796753 
168 1 8.133150100708008 -2.380973577499390 -10.303070068359375 
169 1 1.210601210594177 -8.907948493957520 -6.815104961395264 
170 1 -0.249126568436623 9.729544639587402 -2.530879259109497 
171 1 6.982085227966309 -5.825954914093018 8.984744071960449 
172 1 -8.584522247314453 7.441596031188965 -5.523584365844727 
173 1 3.447539329528809 -2.315254449844360 -3.390797853469849 
174 1 2.975949048995972 -5.831890583038330 3.657159328460693 
175 1 -11.307364463806152 -9.498537063598633 6.971438884735107 
176 1 -4.944722652435303 6.348993301391602 -6.240737915039062 
177 1 8.954784393310547 -4.968443393707275 1.802111029624939 
178 1 4.946676731109619 3.925892353057861 4.688477516174316 
179 1 6.132658481597900 -10.153931617736816 -7.896190166473389 
180 1 -10.990206718444824 4.638384342193604 -11.067834854125977 
181 1 -10.929244041442871 -1.820967316627502 -7.784583568572998 
182 1 2.348047018051147 -10.007671356201172 0.273107171058655 
183 1 3.972730636596680 7.967931270599365 8.076090812683105 
184 1 -3.796430587768555 -8.269835472106934 -10.301429748535156 
185 1 -7.301660060882568 -7.010822296142578 -11.054459571838379 
186 1 0.348282933235168 1.629018902778625 -4.453450679779053 
187 1 -5.303036212921143 -1.861517786979675 -10.038790702819824 
188 1 9.368198394775391 8.217792510986328 0.260970413684845 
189 1 9.562284469604492 6.215879917144775 -8.824018478393555 
190 1 2.571618318557739 -10.570376396179199 10.224637031555176 
191 1 -6.516905307769775 4.458630561828613 11.232611656188965 
192 1 10.497923851013184 10.645723342895508 -7.243029117584229 
193 1 -0.337196886539459 11.416244506835938 2.084227561950684 
194 1 2.313663005828857 7.172085762023926 -10.952555656433105 
195 1 -8.968144416809082 -8.333006858825684 -4.418114185333252 
196 1 5.717828273773193 -4.610213279724121 5.562163829803467 
197 1 -8.412500381469727 -4.809317111968994 -3.468225240707397 
198 1 7.568496227264404 2.100768089294434 -7.983970165252686 
199 1 8.888562202453613 -1.227790355682373 -6.706279277801514 
200 1 10.817880630493164 -4.019413948059082 -1.328801035881042 
201 1 -9.635458946228027 -11.027390480041504 4.321142196655273 
202 1 3.835424661636353 -3.747330427169800 -9.806131362915039 
203 1 8.461806297302246 2.910259723663330 3.733920574188232 
204 1 -8.460202217102051 -7.042652130126953 -0.404995173215866 
205 1 -6.694137573242188 2.730276107788086 8.080305099487305 
206 1 10.344895362854004 5.714459896087646 2.147672414779663 
207 1 -6.459892749786377 -6.437984943389893 -7.460669040679932 
208 1 -2.142772674560547 -10.469804763793945 -8.092029571533203 
209 1 -0.059844747185707 -8.258424758911133 2.519243001937866 
210 1 5.400496006011963 -0.424389302730560 -5.900332450866699 
211 1 5.830472469329834 7.877695083618164 11.400349617004395 
212 1 -4.217430114746094 -0.998918354511261 3.304641962051392 
213 1 2.155359745025635 5.627785682678223 6.448315620422363 
214 1 6.173425197601318 -10.425792694091797 5.467404365539551 
215 1 -1.504232764244080 11.029173851013184 -11.158425331115723 
216 1 6.685026645660400 9.116868972778320 2.005589246749878 
217 1 -2.242857694625854 -1.002264022827148 -7.981610774993896 
218 1 4.977338790893555 3.271304130554199 -6.163626194000244 
219 1 7.104178905487061 -6.167754173278809 -6.655553817749023 
220 1 -6.470997333526611 -1.190433025360107 7.937652587890625 
221 1 -1.070481300354004 8.022497177124023 3.429526329040527 
222 1 -2.148195743560791 -7.239375591278076 6.711589336395264 
223 2 -5.228750228881836 -1.220001935958862 1.589123725891113 
224 2 -9.120881080627441 8.435701370239258 -1.417559266090393 
225 2 10.305333137512207 9.533724784851074 4.687442302703857 
226 2 6.444164752960205 2.688558101654053 -0.373330533504486 
227 2 -4.365904331207275 -8.307927131652832 1.159784555435181 
228 2 9.190235137939453 -2.768312215805054 -5.416232585906982 
229 2 9.212432861328125 -8.813795089721680 -5.201018810272217 
230 2 -8.214578628540039 7.685417652130127 1.042929291725159 
231 2 -6.103495597839355 9.526997566223145 -3.180685043334961 
232 2 11.012217521667480 10.992937088012695 10.211765289306641 
233 2 -5.839148521423340 2.682256698608398 -0.612741410732269 
234 2 6.649280071258545 -10.783327102661133 3.668649911880493 
235 2 7.273604869842529 -4.373506546020508 -2.215792894363403 
236 2 10.686582565307617 -5.950130462646484 -1.327088952064514 
237 2 9.139546394348145 10.129815101623535 -8.521740913391113 
238 2 -4.940960884094238 -10.228797912597656 -10.935153961181641 
239 2 10.988214492797852 -3.577455520629883 -7.294772624969482 
240 2 -3.424243927001953 7.987372398376465 -9.940103530883789 
241 2 7.364391326904297 7.726870059967041 10.117796897888184 
242 2 6.110514163970947 3.530397176742554 -7.942280292510986 
243 2 -9.482097625732422 -11.298973083496094 -9.665339469909668 
244 2 -2.873820543289185 8.672677993774414 4.195336818695068 
245 2 -1.091153860092163 9.503276824951172 -10.083758354187012 
246 2 4.439035892486572 -10.537166595458984 -6.881947517395020 
247 2 6.342660903930664 -5.929360389709473 -8.543606758117676 
248 2 9.338118553161621 10.008060455322266 -0.678357005119324 
249 2 -6.287301063537598 -9.072274208068848 8.105327606201172 
250 2 -6.876261234283447 -10.867711067199707 -8.003885269165039 
251 2 -3.927974939346313 10.276958465576172 -1.045887827873230 
252 2 -11.330876350402832 -10.071181297302246 11.471058845520020 
253 2 1.605894207954407 4.056799411773682 7.713757514953613 
254 2 -9.222729682922363 1.794100284576416 -8.360648155212402 
255 2 -11.476230621337891 7.435980319976807 -3.303381919860840 
256 2 -6.911503314971924 10.615924835205078 1.925180435180664 
257 2 10.861308097839355 0.651326358318329 -0.594486236572266 
258 2 10.449735641479492 2.615306615829468 -4.417034626007080 
259 2 11.537300109863281 8.460816383361816 7.270338535308838 
260 2 11.212905883789062 10.855652809143066 -10.392568588256836 
261 2 4.558839797973633 -3.504380702972412 -8.011213302612305 
262 2 4.607645988464355 5.594955444335938 3.491975069046021 
263 2 -0.432487130165100 -8.728889465332031 -2.223379373550415 
264 2 -4.040404796600342 -5.087667465209961 11.454162597656250 
265 2 -3.685237169265747 0.590610742568970 0.032228518277407 
266 2 -3.786459445953369 -3.675149440765381 6.498029708862305 
267 2 -2.458452939987183 -10.589803695678711 -2.843486309051514 
268 2 -4.329975128173828 8.118994712829590 -5.205635070800781 
269 2 9.405949592590332 7.301418304443359 -1.397766709327698 
270 2 -9.737581253051758 10.616195678710938 11.346888542175293 
271 2 -7.801529884338379 -8.897260665893555 -10.269299507141113 
272 2 3.337428569793701 -4.336139202117920 -11.602383613586426 
273 2 -8.719224929809570 -5.987294197082520 -1.953349351882935 
274 2 10.221296310424805 -3.158069610595703 -10.102598190307617 
275 2 -9.136716842651367 -0.137015178799629 2.108726501464844 
276 2 5.494890689849854 -1.014913916587830 -0.700378656387329 
277 2 7.831355094909668 4.599491119384766 -1.661251544952393 
278 2 -3.338943004608154 -0.079461142420769 -6.169990539550781 
279 2 7.326723098754883 8.386423110961914 0.047407075762749 
280 2 -4.718811511993408 -11.014262199401855 1.422702908515930 
281 2 2.539035320281982 -9.709183692932129 -1.567592859268188 
282 2 -10.243263244628906 -3.766426086425781 -3.818181037902832 
283 2 -9.779625892639160 -8.342847824096680 7.531323432922363 
284 2 -8.595552444458008 1.209232091903687 4.420866012573242 
285 2 9.051932334899902 2.298733472824097 -9.724667549133301 
286 2 7.814510822296143 -2.642464399337769 11.197913169860840 
287 2 -2.393165349960327 -1.792895555496216 3.408171415328979 
288 2 9.355998039245605 2.797696828842163 -0.280868083238602 
289 2 -6.705075263977051 6.433528900146484 11.046847343444824 
290 2 -8.367468833923340 9.209424018859863 6.444530487060547 
291 2 11.229062080383301 7.199310779571533 -8.554812431335449 
292 2 2.027040243148804 6.093209266662598 -1.347674608230591 
293 2 -7.953555107116699 -3.346119403839111 -4.860289096832275 
294 2 -3.168371677398682 0.689734876155853 2.656905889511108 
295 2 -10.399330139160156 -6.091783523559570 -8.476885795593262 
296 2 -4.561065673828125 6.227780342102051 5.475989818572998 
297 2 3.543740272521973 -5.760702133178711 -9.318399429321289 
298 2 -0.995919644832611 11.253154754638672 -7.529485702514648 
299 2 -8.741853713989258 -10.236222267150879 -4.214288234710693 
300 2 -2.359865903854370 7.270755767822266 6.169404983520508 
301 2 1.420622110366821 -11.053071975708008 -6.333966255187988 
302 2 -8.245565414428711 1.834559440612793 -3.787291526794434 
303 2 -7.373367786407471 -6.028345108032227 -9.323262214660645 
304 2 -6.798644065856934 -3.667200088500977 9.501922607421875 
305 2 -1.857124686241150 0.987122893333435 -8.239379882812500 
306 2 -2.108445882797241 -9.825521469116211 0.002740787342191 
307 2 -2.602219820022583 3.759926795959473 3.529057979583740 
308 2 2.802505493164062 -0.355771452188492 1.606658816337585 
309 2 2.137895107269287 -3.870035648345947 -2.703103303909302 
310 2 -9.288565635681152 -3.981259346008301 7.100400447845459 
311 2 7.538459777832031 -11.543119430541992 6.387611389160156 
312 2 -5.054415702819824 -2.351464271545410 -5.934422969818115 
313 2 5.793854713439941 7.837933540344238 7.213771343231201 
314 2 1.380087375640869 -6.160077571868896 -4.337603569030762 
315 2 4.022954940795898 3.980914354324341 -9.803575515747070 
316 2 -0.144221618771553 8.702984809875488 4.935213088989258 
317 2 1.054170608520508 -11.179048538208008 1.064196586608887 
318 2 -8.053770065307617 -3.428162574768066 -7.856426715850830 
319 2 6.050285339355469 -10.812621116638184 9.779579162597656 
320 2 -11.113015174865723 -11.109505653381348 0.848687171936035 
321 2 -3.360401391983032 -4.748098373413086 -3.878340005874634 
322 2 1.674507856369019 7.393919944763184 -5.349899291992188 
323 2 -8.492243766784668 2.024660348892212 7.895467758178711 
324 2 10.229761123657227 -8.702192306518555 -9.359318733215332 
325 2 -4.412443161010742 -10.207807540893555 6.407932758331299 
326 2 11.321306228637695 -0.878303706645966 -9.252793312072754 
327 2 -10.672311782836914 -4.024622917175293 -0.890360713005066 
328 2 -2.135542869567871 2.943059921264648 0.457434386014938 
329 2 8.425809860229492 11.382846832275391 10.325839996337891 
330 2 7.122861385345459 10.020560264587402 8.441152572631836 
331 2 9.708504676818848 6.569880962371826 5.741974830627441 
332 2 -7.100352287292480 -3.908774137496948 4.313785076141357 
333 2 -2.343571662902832 -7.730522155761719 -6.785724163055420 
334 2 -6.438569545745850 1.742497324943542 -8.985300064086914 
335 2 3.036475419998169 6.114161491394043 -3.606961011886597 
336 2 5.886264324188232 -3.717317104339600 -0.069944500923157 
337 2 7.838572502136230 -10.995314598083496 -1.334712624549866 
338 2 -1.381669998168945 -5.801850795745850 10.808105468750000 
339 2 -9.610287666320801 0.747796893119812 -1.061566591262817 
340 2 -8.981954574584961 -6.289808273315430 -4.556175231933594 
341 2 7.265135765075684 9.785411834716797 -2.607830286026001 
342 2 7.935256004333496 3.604844331741333 10.656775474548340 
343 2 -11.221703529357910 5.267259120941162 5.324073791503906 
344 2 8.409048080444336 7.731849193572998 -8.129830360412598 
345 2 -4.989658832550049 4.741523742675781 -7.404388427734375 
346 2 -11.160937309265137 2.956327438354492 -1.218189597129822 
347 2 4.979948520660400 -2.802459716796875 5.422332763671875 
348 2 10.470916748046875 4.835416316986084 -2.436493158340454 
349 2 4.712931156158447 7.781564712524414 9.823738098144531 
350 2 9.539404869079590 -10.980754852294922 1.106860399246216 
351 2 -5.041484832763672 -7.456985473632812 -6.275489330291748 
352 2 4.924062728881836 3.017308473587036 11.051310539245605 
353 2 -5.952185630798340 -11.091846466064453 4.061934947967529 
354 2 1.017549991607666 -5.060969352722168 6.308400630950928 
355 2 3.652756214141846 -10.721929550170898 8.583698272705078 
356 2 2.351228475570679 -5.985441207885742 1.823902487754822 
357 2 3.554006576538086 -2.240272521972656 10.063625335693359 
358 2 1.996740460395813 -1.947975158691406 -4.567740440368652 
359 2 -4.261477947235107 -8.920359611511230 -1.853806853294373 
360 2 9.957526206970215 1.937639713287354 3.095490455627441 
361 2 -11.590780258178711 -5.992945671081543 7.028027534484863 
362 2 3.316506147384644 11.597585678100586 -0.097550578415394 
363 2 8.724571228027344 -2.401143550872803 -8.269362449645996 
364 2 -8.720245361328125 -3.694541215896606 -10.844136238098145 
365 2 -9.567563056945801 6.724470138549805 6.825918197631836 
366 2 -4.511019229888916 11.134667396545410 -3.999438047409058 
367 2 -7.634666442871094 4.454057693481445 -10.593226432800293 
368 2 -0.800816774368286 -5.592282295227051 -2.349377870559692 
369 2 0.277378439903259 -7.673389434814453 -9.571774482727051 
370 2 -2.248751640319824 8.775722503662109 -7.618054866790771 
371 2 -8.337113380432129 -5.959393501281738 -6.995598793029785 
372 2 -4.129010677337646 -7.630107402801514 3.876069307327271 
373 2 -2.529362440109253 -1.817179441452026 8.187175750732422 
374 2 11.263358116149902 5.214868068695068 -4.830040931701660 
375 2 -1.760666966438293 -3.171401739120483 10.872591972351074 
376 2 -0.210099294781685 -6.486601352691650 0.433436185121536 
377 2 4.562035560607910 -2.193561077117920 -5.488303661346436 
378 2 10.208831787109375 -3.809901237487793 -3.139393091201782 
379 2 6.900761127471924 -9.958525657653809 -11.181758880615234 
380 2 -11.549234390258789 -8.308115959167480 5.500188350677490 
381 2 -6.878848075866699 4.575860023498535 3.102010488510132 
382 2 10.506762504577637 9.719293594360352 1.555423736572266 
383 2 -5.404522418975830 -0.386551439762115 -1.488898754119873 
384 2 -0.350924283266068 -8.196776390075684 10.791064262390137 
385 2 -9.896806716918945 8.679874420166016 -9.853026390075684 
386 2 -7.275769233703613 4.342274665832520 -3.071439504623413 
387 2 -4.884513854980469 3.128498077392578 8.496685028076172 
388 2 7.101527214050293 6.926657199859619 -2.736716032028198 
389 2 -7.956191062927246 7.879611492156982 -3.769012689590454 
390 2 4.086882591247559 9.919966697692871 7.628832340240479 
391 2 -11.206531524658203 -0.551992952823639 9.100560188293457 
392 2 1.975007176399231 5.375879287719727 -6.936195373535156 
393 2 -7.384746074676514 -1.163433670997620 -6.281974792480469 
394 2 4.782140731811523 -0.022388657554984 3.854530811309814 
395 2 -1.044688940048218 5.165691852569580 1.701710343360901 
396 2 10.864812850952148 -1.997014522552490 4.134114742279053 
397 2 -6.526924610137939 3.411733150482178 -5.577987194061279 
398 2 -0.971825003623962 -0.948062121868134 -6.581065177917480 
399 2 -3.652646064758301 -9.812132835388184 9.043252944946289 
400 2 -0.448327451944351 6.945386409759521 -8.035615921020508 
401 2 9.808038711547852 -4.605547904968262 3.719834566116333 
402 2 -11.008369445800781 -4.534202575683594 4.920172691345215 
403 2 -6.472420215606689 -4.970408439636230 -3.313864231109619 
404 2 3.597008943557739 -3.280029296875000 1.751951813697815 
405 2 -8.190750122070312 -4.994193077087402 0.536591887474060 
406 2 2.852924585342407 0.489739149808884 6.214246273040771 
407 2 5.678187847137451 -0.235809355974197 6.460458278656006 
408 2 -10.188969612121582 -6.620658397674561 0.549295246601105 
409 2 5.129149436950684 -5.861710548400879 1.147970318794250 
410 2 5.590166568756104 -4.226038932800293 -10.565100669860840 
411 2 1.141922950744629 -2.169147968292236 0.651579260826111 
412 2 -0.942408502101898 -10.060145378112793 2.411502599716187 
413 2 -4.905372142791748 7.599360466003418 -7.786306381225586 
414 2 -7.559473037719727 -1.474081873893738 -0.295740306377411 
415 2 3.789344072341919 -5.386898040771484 5.894804477691650 
416 2 9.537199974060059 -1.734799981117249 6.167289733886719 
417 2 8.383779525756836 -4.265913963317871 9.003565788269043 
418 2 -6.285170555114746 -10.890759468078613 -5.571172714233398 
419 2 -1.232822060585022 -0.731690585613251 10.493297576904297 
420 2 3.516460418701172 7.774131298065186 -7.631869792938232 
421 2 -10.629580497741699 0.680466592311859 6.679018497467041 
422 2 9.328114509582520 7.289049148559570 -4.288697719573975 
423 2 -2.080336093902588 4.351571559906006 6.194232463836670 
424 2 4.142012596130371 -9.739706039428711 1.224489808082581 
425 2 -0.301812529563904 -10.959780693054199 6.061482906341553 
426 2 -6.788112163543701 -0.569727540016174 3.430035114288330 
427 2 8.017144203186035 -2.111008405685425 -0.411210268735886 
428 2 -2.639073133468628 -1.611690282821655 -1.304023504257202 
429 2 3.929599285125732 2.820679664611816 -4.528243541717529 
430 2 1.891979217529297 -10.057138442993164 -8.547344207763672 
431 2 -5.254513740539551 8.594581604003906 9.890681266784668 
432 2 -11.124475479125977 -10.017617225646973 3.467793703079224 
433 2 -10.649462699890137 8.006008148193359 4.864737987518311 
434 2 6.138747692108154 -5.271193504333496 7.353153228759766 
435 2 -1.730922698974609 -6.305928707122803 5.031249046325684 
436 2 9.945900917053223 0.442282140254974 -2.970105886459351 
437 2 -11.119039535522461 -3.755637645721436 1.978186130523682 
438 2 -4.686540126800537 10.464120864868164 -8.490541458129883 
439 2 -3.319647073745728 -10.276448249816895 3.851517677307129 
440 2 -1.483008027076721 1.709464788436890 4.729047298431396 
441 2 -6.833950042724609 -10.898334503173828 -0.065782614052296 
442 2 1.587417006492615 8.447878837585449 11.216871261596680 
443 2 -0.506385445594788 -9.477374076843262 -7.590195655822754 
444 2 -6.878764629364014 4.585978031158447 0.680040180683136 
445 2 -7.202722072601318 1.286346673965454 -6.709295272827148 
446 2 7.414489269256592 1.335968613624573 3.970724344253540 
447 2 -6.609949588775635 0.782734572887421 9.052455902099609 
448 2 0.227639243006706 3.573612928390503 3.939492702484131 
449 2 9.420917510986328 5.876362323760986 -6.804548263549805 
450 2 11.569500923156738 -6.579649448394775 3.610636234283447 
451 2 0.776884615421295 1.940502405166626 5.995898246765137 
452 2 2.737855911254883 -1.622644305229187 4.280429840087891 
453 2 2.638152122497559 -1.802205801010132 -1.554796457290649 
454 2 -4.628652572631836 3.184284448623657 1.834270954132080 
455 2 10.102817535400391 0.725315213203430 5.858088970184326 
456 2 -6.436503887176514 11.234494209289551 7.070467948913574 
457 2 4.092035770416260 8.091025352478027 -10.596194267272949 
458 2 -3.118030071258545 0.382061213254929 9.357381820678711 
459 2 6.058433055877686 5.195645809173584 9.474720954895020 
460 2 -2.009907007217407 -5.514823913574219 7.511793613433838 
461 2 6.913068294525146 8.346245765686035 -10.373575210571289 
462 2 11.311639785766602 5.775945186614990 8.044789314270020 
463 2 -1.239450216293335 6.158098220825195 4.110072135925293 
464 2 0.405324816703796 -1.654754638671875 6.285641193389893 
465 2 5.487813472747803 1.977757096290588 -2.577921628952026 
466 2 9.768731117248535 -4.537984371185303 6.290758132934570 
467 2 -4.739499568939209 4.606302261352539 10.649754524230957 
468 2 9.607313156127930 -10.683372497558594 -10.696876525878906 
469 2 -8.843022346496582 -9.312794685363770 4.897163867950439 
470 2 -8.869353294372559 -8.969261169433594 0.074240721762180 
471 2 2.544555664062500 -7.259728908538818 5.094576358795166 
472 2 0.337413638830185 0.576203465461731 -10.281451225280762 
473 2 6.699161052703857 -7.427740097045898 -5.228135108947754 
474 2 -2.485107660293579 -6.660116195678711 -9.843484878540039 
475 2 -0.928118824958801 9.940569877624512 -0.702867209911346 