ITEM: TIMESTEP
0
ITEM: NUMBER OF ATOMS
1008
ITEM: BOX BOUNDS xy xz yz pp pp pp
0.0 23.3006801605 0.0
0.0 23.3006801605 0.0
0.0 23.3006801605 0.0
ITEM: ATOMS id type x y z
1 1 4.209182262420654 -7.049858093261719 -8.131550788879395 
2 1 0.106844924390316 6.197615623474121 -1.356774091720581 
3 1 -10.975069046020508 5.529411792755127 -3.288718938827515 
4 1 -1.343492031097412 3.151567459106445 -1.404812693595886 
5 1 5.958774089813232 -11.640475273132324 -11.517610549926758 
6 1 0.010316332802176 -2.454422712326050 10.309241294860840 
7 1 8.077482223510742 0.131538838148117 -3.332860231399536 
8 1 -4.099327087402344 -1.184939384460449 -4.685428619384766 
9 1 -9.709291458129883 10.276839256286621 -1.595550417900085 
10 1 5.184134006500244 -0.258218228816986 -9.660490989685059 
11 1 9.561139106750488 2.166954517364502 7.048829078674316 
12 1 9.116117477416992 -2.895850181579590 4.529270648956299 
13 1 0.739858329296112 3.351088285446167 9.516299247741699 
14 1 -6.760589122772217 4.368037223815918 -1.300745606422424 
15 1 -5.387619972229004 -3.820096969604492 5.507017135620117 
16 1 2.910540580749512 -9.120960235595703 4.464024543762207 
17 1 -10.377145767211914 3.613466739654541 5.788762092590332 
18 1 -9.582568168640137 2.188237905502319 -2.326981067657471 
19 1 -0.885737359523773 -1.640794992446899 4.789441585540771 
20 1 -10.250086784362793 -2.541694164276123 8.287428855895996 
21 1 10.866073608398438 -5.716449737548828 5.232139110565186 
22 1 -0.028507960960269 -7.254707336425781 -3.420008659362793 
23 1 -5.867293357849121 -7.107037067413330 7.339829444885254 
24 1 7.834607124328613 4.742934226989746 9.038000106811523 
25 1 7.350809574127197 -2.525177240371704 9.334917068481445 
26 1 -5.724495410919189 6.525114536285400 6.999310016632080 
27 1 8.132615089416504 -10.821075439453125 2.375274658203125 
28 1 0.151513352990150 10.408303260803223 5.843791007995605 
29 1 -3.069942951202393 -11.041884422302246 -4.635265350341797 
30 1 -6.087338447570801 3.049767971038818 -7.468577384948730 
31 1 -1.383410453796387 5.175792217254639 -7.495652198791504 
32 1 11.626220703125000 6.839970111846924 6.340394020080566 
33 1 4.634868144989014 6.052882671356201 1.439532399177551 
34 1 2.124273538589478 3.381937265396118 0.082805372774601 
35 1 0.419743865728378 -1.582114696502686 -5.539340972900391 
36 1 -10.507261276245117 -11.323859214782715 10.246886253356934 
37 1 11.458924293518066 -0.582444429397583 5.565135002136230 
38 1 -4.595522880554199 1.335202813148499 -1.555895209312439 
39 1 4.434751033782959 -4.094114780426025 -6.146587371826172 
40 1 -7.194480895996094 -4.721188068389893 2.473268985748291 
41 1 -3.275181531906128 -6.870977401733398 -5.227934837341309 
42 1 3.156471490859985 -10.310631752014160 -9.969513893127441 
43 1 -8.451420783996582 5.427770614624023 -9.097555160522461 
44 1 -2.255783796310425 -9.171629905700684 -1.684622287750244 
45 1 -8.427021026611328 10.806588172912598 7.608238220214844 
46 1 0.841614842414856 9.405941009521484 9.611078262329102 
47 1 7.305971145629883 -9.060118675231934 -4.438985347747803 
48 1 4.964014530181885 -8.948618888854980 8.723116874694824 
49 1 3.598238468170166 11.493565559387207 -5.718340873718262 
50 1 -10.801214218139648 -5.624808311462402 2.211524009704590 
51 1 -6.271625518798828 10.189399719238281 5.330861091613770 
52 1 -11.000889778137207 -0.617054402828217 -0.866248428821564 
53 1 -1.963008880615234 0.982074081897736 1.029005408287048 
54 1 -1.408402562141418 -0.616919159889221 -2.271234989166260 
55 1 3.860667467117310 -4.073531627655029 9.899108886718750 
56 1 2.988015651702881 8.237377166748047 -4.140475273132324 
57 1 6.869805335998535 -5.755267143249512 -10.496108055114746 
58 1 3.782535791397095 5.459888458251953 -1.821889996528625 
59 1 3.840024232864380 9.356831550598145 -8.954189300537109 
60 1 0.454461067914963 5.220635414123535 3.030060768127441 
61 1 2.517364978790283 0.904007911682129 -7.294349670410156 
62 1 8.546880722045898 7.588610172271729 -6.042407512664795 
63 1 -1.738548278808594 -5.635721206665039 -0.356691449880600 
64 1 -4.942431926727295 -6.847620964050293 0.957822561264038 
65 1 8.848473548889160 6.110898017883301 -2.777911424636841 
66 1 0.173768326640129 -3.428046226501465 -8.893567085266113 
67 1 5.389532089233398 -3.837559938430786 1.862198948860168 
68 1 9.670188903808594 7.386392116546631 10.865767478942871 
69 1 -11.480705261230469 -9.687770843505859 -2.347917079925537 
70 1 -6.826731681823730 -2.987000226974487 -6.477345943450928 
71 1 -1.002530455589294 9.640807151794434 -6.140076637268066 
72 1 3.847130537033081 1.161685705184937 2.532417297363281 
73 1 -7.503285408020020 0.405030995607376 -5.011389732360840 
74 1 -3.346992254257202 4.568508625030518 -10.448199272155762 
75 1 -10.598467826843262 -6.002893924713135 10.903915405273438 
76 1 3.641875743865967 10.489430427551270 3.740771055221558 
77 1 3.305563926696777 10.106553077697754 -1.440191030502319 
78 1 10.776811599731445 11.206070899963379 0.209227681159973 
79 1 3.985458374023438 -9.784749031066895 -2.857838392257690 
80 1 10.116204261779785 0.645168721675873 -9.656517028808594 
81 1 -9.849327087402344 0.817234873771667 8.443391799926758 
82 1 1.787879943847656 -6.465355396270752 0.059383176267147 
83 1 -2.579439163208008 9.488019943237305 0.271740794181824 
84 1 1.856424927711487 -0.562829315662384 -10.437639236450195 
85 1 -7.828019142150879 -3.056748151779175 10.934248924255371 
86 1 -8.561836242675781 9.458744049072266 1.864166855812073 
87 1 7.595283508300781 8.225445747375488 8.082039833068848 
88 1 -2.776666402816772 1.839286565780640 -6.548444271087646 
89 1 -2.929513454437256 5.338653087615967 4.829859733581543 
90 1 9.650141716003418 -4.260882854461670 -8.495303153991699 
91 1 3.237015247344971 11.461039543151855 6.947877407073975 
92 1 3.627003431320190 1.576954245567322 -3.083024740219116 
93 1 -7.144232749938965 8.119163513183594 10.034433364868164 
94 1 -8.640011787414551 7.569991111755371 5.084652423858643 
95 1 -8.594141006469727 10.298811912536621 -10.461645126342773 
96 1 5.883674144744873 4.741356849670410 -9.654067993164062 
97 1 -2.142382383346558 -9.175792694091797 9.831710815429688 
98 1 10.538545608520508 -7.444653034210205 -0.020207392051816 
99 1 0.379318267107010 -6.285160541534424 10.222407341003418 
100 1 -7.106111526489258 8.030073165893555 -2.081334590911865 
101 1 4.075191020965576 -1.057801365852356 5.584906578063965 
102 1 6.771036624908447 1.983004570007324 11.165619850158691 
103 1 0.451086878776550 -9.832497596740723 7.377696037292480 
104 1 -10.197812080383301 0.967759907245636 -11.288770675659180 
105 1 7.276339530944824 11.140345573425293 -5.587646007537842 
106 1 -9.643522262573242 -1.875684857368469 -4.187114715576172 
107 1 -5.249465465545654 -4.837740421295166 10.063193321228027 
108 1 -1.629906296730042 6.236050605773926 -4.424743652343750 
109 1 -10.471103668212891 8.170429229736328 -8.025225639343262 
110 1 -1.117227554321289 6.461205482482910 10.697193145751953 
111 1 -1.644233345985413 7.837015151977539 -9.384030342102051 
112 1 7.549799442291260 -7.544480323791504 3.955876111984253 
113 1 11.189379692077637 0.575157701969147 -4.756195068359375 
114 1 11.333452224731445 8.927770614624023 -4.415217876434326 
115 1 6.745570182800293 3.536628961563110 -3.075154542922974 
116 1 -7.973993778228760 -7.836086750030518 4.285401344299316 
117 1 -2.310047864913940 -3.726386547088623 7.640530586242676 
118 1 -3.312853574752808 8.966166496276855 6.103720188140869 
119 1 3.652895927429199 -7.085836410522461 -11.639411926269531 
120 1 11.119282722473145 9.678979873657227 8.663379669189453 
121 1 9.860899925231934 4.132907390594482 -5.691776752471924 
122 1 -6.604766845703125 11.281101226806641 -3.939043521881104 
123 1 11.530213356018066 4.051210880279541 8.986785888671875 
124 1 7.535554409027100 -11.464149475097656 8.634889602661133 
125 1 -7.076114654541016 0.636529326438904 11.027975082397461 
126 1 -9.914372444152832 1.455319881439209 3.043912172317505 
127 1 -10.708832740783691 2.769197940826416 -7.684418201446533 
128 1 -2.971477270126343 -0.007880511693656 7.391257286071777 
129 1 2.575877904891968 -6.284457683563232 7.103201389312744 
130 1 -3.886055469512939 -4.253082275390625 -7.811366558074951 
131 1 -3.633145093917847 6.331141948699951 -1.478063106536865 
132 1 4.855192661285400 -7.791725635528564 1.369766473770142 
133 1 -5.376286983489990 7.534813404083252 -9.754003524780273 
134 1 -7.937659263610840 0.428427934646606 -8.569912910461426 
135 1 7.276415348052979 9.564028739929199 -8.945815086364746 
136 1 -8.376306533813477 -8.785607337951660 8.951086044311523 
137 1 -1.608989000320435 -4.026375293731689 -3.664009809494019 
138 1 -7.344415187835693 -0.850945949554443 1.613583683967590 
139 1 -5.194718837738037 -10.817251205444336 8.209422111511230 
140 1 -4.396207809448242 3.729952096939087 -3.796525239944458 
141 1 8.497833251953125 -9.057215690612793 -10.579588890075684 
142 1 1.553833842277527 8.298834800720215 1.354341864585876 
143 1 0.349286615848541 1.694429516792297 3.872341394424438 
144 1 8.739188194274902 10.996013641357422 -2.387956380844116 
145 1 7.299678802490234 -9.201875686645508 -0.835242688655853 
146 1 -11.408294677734375 -2.580706596374512 -11.045902252197266 
147 1 -1.873717427253723 1.214317202568054 10.680590629577637 
148 1 5.715566635131836 0.901783943176270 -0.561180353164673 
149 1 -4.749599456787109 -4.954121112823486 -2.341950416564941 
150 1 6.502067565917969 -2.472563743591309 -1.465438365936279 
151 1 9.553516387939453 10.897587776184082 -11.456436157226562 
152 1 1.020758032798767 -3.041358947753906 -1.154975056648254 
153 1 -1.389752745628357 -2.771012306213379 1.731088876724243 
154 1 5.150169849395752 6.962247371673584 -6.778449058532715 
155 1 9.395818710327148 -1.742630720138550 0.770514249801636 
156 1 -6.501644134521484 2.836483955383301 1.726686358451843 
157 1 5.874647617340088 1.820349812507629 7.566600799560547 
158 1 10.037041664123535 -0.109819076955318 10.074114799499512 
159 1 -7.642668724060059 5.997566223144531 1.943850517272949 
160 1 -3.461872339248657 4.395506858825684 9.198158264160156 
161 1 -6.798868179321289 0.708254277706146 4.894923210144043 
162 1 -3.564809083938599 9.333138465881348 9.733151435852051 
163 1 11.567834854125977 -7.304318904876709 -9.205002784729004 
164 1 -2.256279945373535 -4.802680015563965 -11.149254798889160 
165 1 7.698152542114258 4.046084403991699 0.283907234668732 
166 1 -7.575174808502197 10.730726242065430 -7.069758892059326 
167 1 -5.567716598510742 -8.548841476440430 -3.080343008041382 
168 1 8.138956069946289 -2.375521183013916 -10.302189826965332 
169 1 1.216620683670044 -8.906822204589844 -6.812726974487305 
170 1 -0.267888844013214 9.741225242614746 -2.518973112106323 
171 1 6.986454010009766 -5.776844978332520 8.993147850036621 
172 1 -8.602923393249512 7.410804271697998 -5.570193290710449 
173 1 3.437283277511597 -2.299684762954712 -3.386561393737793 
174 1 2.949025869369507 -5.798239231109619 3.655393362045288 
175 1 -11.342720031738281 -9.382742881774902 6.996120929718018 
176 1 -4.942929267883301 6.333139419555664 -6.250921726226807 
177 1 8.947922706604004 -4.956908702850342 1.789231777191162 
178 1 4.946973323822021 3.938663482666016 4.681919574737549 
179 1 6.108186244964600 -10.151591300964355 -7.895189285278320 
180 1 -10.996668815612793 4.649578571319580 -11.073103904724121 
181 1 -10.917507171630859 -1.828105092048645 -7.762740612030029 
182 1 2.357705354690552 -9.978045463562012 0.297135978937149 
183 1 3.952036857604980 7.976301670074463 8.070595741271973 
184 1 -3.800585508346558 -8.232234001159668 -10.266337394714355 
185 1 -7.298414707183838 -7.006192684173584 -11.028687477111816 
186 1 0.347842335700989 1.639505386352539 -4.457051277160645 
187 1 -5.293092250823975 -1.868813991546631 -10.042552947998047 
188 1 9.372287750244141 8.230520248413086 0.242916271090508 
189 1 9.550528526306152 6.226508617401123 -8.831984519958496 
190 1 2.567357063293457 -10.526982307434082 10.192995071411133 
191 1 -6.528041839599609 4.463259220123291 11.231470108032227 
192 1 10.478703498840332 10.647345542907715 -7.244619369506836 
193 1 -0.318420827388763 11.436944007873535 2.092700004577637 
194 1 2.301885843276978 7.192845821380615 -10.957892417907715 
195 1 -8.945659637451172 -8.364464759826660 -4.409165382385254 
196 1 5.776062488555908 -4.561995029449463 5.526288986206055 
197 1 -8.406620025634766 -4.859596252441406 -3.393644332885742 
198 1 7.567531585693359 2.100393056869507 -7.990884304046631 
199 1 8.897704124450684 -1.230661869049072 -6.699044227600098 
200 1 10.857118606567383 -4.041208267211914 -1.322508573532104 
201 1 -9.720664978027344 -11.088545799255371 4.416176795959473 
202 1 3.834632635116577 -3.736172676086426 -9.789621353149414 
203 1 8.466063499450684 2.920614719390869 3.726495504379272 
204 1 -8.350263595581055 -7.058102130889893 -0.295893520116806 
205 1 -6.660655021667480 2.735141992568970 8.062369346618652 
206 1 10.341489791870117 5.735073089599609 2.144568443298340 
207 1 -6.440056324005127 -6.433809757232666 -7.449427604675293 
208 1 -2.138955593109131 -10.462817192077637 -8.101642608642578 
209 1 -0.051022361963987 -8.231974601745605 2.588269948959351 
210 1 5.404901027679443 -0.429013967514038 -5.910087108612061 
211 1 5.814165592193604 7.893290042877197 11.396686553955078 
212 1 -4.205445289611816 -0.994827449321747 3.309705257415771 
213 1 2.161030292510986 5.627560615539551 6.443524360656738 
214 1 6.166155338287354 -10.409453392028809 5.473217487335205 
215 1 -1.527377486228943 11.040888786315918 -11.169451713562012 
216 1 6.696969985961914 9.123959541320801 1.996115803718567 
217 1 -2.225458621978760 -0.996429681777954 -7.999313831329346 
218 1 4.973856925964355 3.269290208816528 -6.170974731445312 
219 1 7.108714103698730 -6.160840511322021 -6.645125865936279 
220 1 -6.466370105743408 -1.142716288566589 7.935242176055908 
221 1 -1.050404906272888 8.027281761169434 3.374420166015625 
222 1 -2.022837877273560 -7.302072525024414 6.628427505493164 
223 2 -5.203198432922363 -1.252536535263062 1.592801928520203 
224 2 -9.150697708129883 8.402635574340820 -1.458312630653381 
225 2 10.322233200073242 9.573467254638672 4.721753597259521 
226 2 6.446476459503174 2.691565275192261 -0.380069106817245 
227 2 -4.173602581024170 -8.552457809448242 0.951051294803619 
228 2 9.200066566467285 -2.777778148651123 -5.412315368652344 
229 2 9.200023651123047 -8.822250366210938 -5.213516712188721 
230 2 -8.239310264587402 7.683542251586914 1.024223208427429 
231 2 -6.122250080108643 9.507687568664551 -3.253416776657104 
232 2 10.994432449340820 11.026131629943848 10.202571868896484 
233 2 -5.833747863769531 2.641514778137207 -0.632064998149872 
234 2 6.652549266815186 -10.768581390380859 3.681185245513916 
235 2 7.244680881500244 -4.386045455932617 -2.235243320465088 
236 2 10.708317756652832 -5.968855381011963 -1.315380096435547 
237 2 9.125635147094727 10.138886451721191 -8.532825469970703 
238 2 -4.966570854187012 -10.233343124389648 -10.938985824584961 
239 2 10.995969772338867 -3.568175315856934 -7.290576934814453 
240 2 -3.425334692001343 7.989224433898926 -9.956955909729004 
241 2 7.350740432739258 7.745677947998047 10.112429618835449 
242 2 6.104883670806885 3.532333850860596 -7.949250698089600 
243 2 -9.495111465454102 -11.292137145996094 -9.675399780273438 
244 2 -2.831154108047485 8.654450416564941 4.128421306610107 
245 2 -1.102541804313660 9.516438484191895 -10.095472335815430 
246 2 4.420575141906738 -10.522624969482422 -6.871028423309326 
247 2 6.325473308563232 -5.921293258666992 -8.538848876953125 
248 2 9.324916839599609 10.020012855529785 -0.673482179641724 
249 2 -6.282838821411133 -9.028018951416016 8.129513740539551 
250 2 -6.880071640014648 -10.871931076049805 -7.986274719238281 
251 2 -3.948907613754272 10.357834815979004 -1.025589466094971 
252 2 -11.365499496459961 -10.038872718811035 11.483332633972168 
253 2 1.618015170097351 4.060586452484131 7.716105461120605 
254 2 -9.247593879699707 1.795215845108032 -8.433180809020996 
255 2 -11.487891197204590 7.424769401550293 -3.325798988342285 
256 2 -6.959084033966064 10.442711830139160 1.820401072502136 
257 2 10.876671791076660 0.624223470687866 -0.588739693164825 
258 2 10.444795608520508 2.610313177108765 -4.430620670318604 
259 2 11.550367355346680 8.500179290771484 7.263185024261475 
260 2 11.202133178710938 10.877590179443359 -10.404141426086426 
261 2 4.559106349945068 -3.514627695083618 -7.999518394470215 
262 2 4.603361606597900 5.604417800903320 3.480123758316040 
263 2 -0.382837444543839 -8.808742523193359 -2.307642221450806 
264 2 -4.001413822174072 -5.109389305114746 11.471336364746094 
265 2 -3.670197725296021 0.612459540367126 0.022282298654318 
266 2 -3.798144578933716 -3.627313613891602 6.573478221893311 
267 2 -2.361682653427124 -10.649807929992676 -2.892350196838379 
268 2 -4.335988044738770 8.103875160217285 -5.234533309936523 
269 2 9.401097297668457 7.306039810180664 -1.409428834915161 
270 2 -9.755933761596680 10.637230873107910 11.323993682861328 
271 2 -7.807024478912354 -8.883476257324219 -10.243895530700684 
272 2 3.330367803573608 -4.312681674957275 -11.591344833374023 
273 2 -8.715855598449707 -6.046508312225342 -1.879939794540405 
274 2 10.220332145690918 -3.154650688171387 -10.099929809570312 
275 2 -9.128334045410156 -0.158464044332504 2.117522716522217 
276 2 5.497673034667969 -1.011362314224243 -0.699408471584320 
277 2 7.827765941619873 4.603771209716797 -1.667637467384338 
278 2 -3.307381629943848 -0.079937078058720 -6.174730300903320 
279 2 7.321261405944824 8.398331642150879 0.043608799576759 
280 2 -4.797105312347412 -11.204168319702148 1.479378342628479 
281 2 2.536435604095459 -9.691492080688477 -1.547183275222778 
282 2 -10.253823280334473 -3.790252923965454 -3.779480934143066 
283 2 -9.794408798217773 -8.280217170715332 7.558161735534668 
284 2 -8.578032493591309 1.230521321296692 4.399933815002441 
285 2 9.042353630065918 2.304897308349609 -9.718093872070312 
286 2 7.814701080322266 -2.628219127655029 11.198800086975098 
287 2 -2.380849123001099 -1.770941138267517 3.405066490173340 
288 2 9.362186431884766 2.787254095077515 -0.291000217199326 
289 2 -6.702529907226562 6.441876411437988 11.026311874389648 
290 2 -7.715754508972168 9.037702560424805 6.249669551849365 
291 2 11.218148231506348 7.207340717315674 -8.568965911865234 
292 2 2.031896352767944 6.108537197113037 -1.348307847976685 
293 2 -7.939342975616455 -3.416374921798706 -4.801022529602051 
294 2 -3.168511152267456 0.701631724834442 2.652844190597534 
295 2 -10.381310462951660 -6.086579799652100 -8.454644203186035 
296 2 -4.471716403961182 6.216280937194824 5.568587303161621 
297 2 3.535425662994385 -5.763466835021973 -9.326457977294922 
298 2 -0.997208952903748 11.265707015991211 -7.547115802764893 
299 2 -8.721071243286133 -10.270115852355957 -4.270640373229980 
300 2 -2.291676759719849 7.278155803680420 6.132056236267090 
301 2 1.412440299987793 -11.040169715881348 -6.331629276275635 
302 2 -8.257447242736816 1.826665520668030 -3.797185897827148 
303 2 -7.355651855468750 -6.013525485992432 -9.301597595214844 
304 2 -6.758238792419434 -3.714883565902710 9.497757911682129 
305 2 -1.866388201713562 0.998265445232391 -8.263854980468750 
306 2 -1.998285055160522 -10.041487693786621 -0.048519428819418 
307 2 -2.580144405364990 3.750291109085083 3.511214733123779 
308 2 2.792610406875610 -0.338502407073975 1.600628972053528 
309 2 2.110339879989624 -3.849822282791138 -2.728523969650269 
310 2 -9.290048599243164 -3.960102558135986 7.095657348632812 
311 2 7.572239398956299 -11.520366668701172 6.359272003173828 
312 2 -5.054259777069092 -2.334478378295898 -6.006972789764404 
313 2 5.772356033325195 7.851387023925781 7.215349674224854 
314 2 1.359718799591064 -6.151218891143799 -4.335738658905029 
315 2 4.022668361663818 3.985513210296631 -9.812223434448242 
316 2 -0.125822663307190 8.741819381713867 4.875999450683594 
317 2 1.064348816871643 -11.161530494689941 1.088015794754028 
318 2 -8.049673080444336 -3.443849802017212 -7.837193965911865 
319 2 6.043107032775879 -10.763227462768555 9.771203041076660 
320 2 -11.118851661682129 -11.099680900573730 0.860533297061920 
321 2 -3.389890193939209 -4.747630119323730 -3.798850297927856 
322 2 1.672315001487732 7.398166179656982 -5.353987216949463 
323 2 -8.469102859497070 2.047910690307617 7.896747589111328 
324 2 10.226530075073242 -8.692175865173340 -9.349792480468750 
325 2 -4.472867965698242 -10.199461936950684 6.421809196472168 
326 2 11.328842163085938 -0.883289575576782 -9.255918502807617 
327 2 -10.639939308166504 -4.062848091125488 -0.836463570594788 
328 2 -2.116344213485718 2.953805923461914 0.439154595136642 
329 2 8.405644416809082 11.392688751220703 10.321031570434570 
330 2 7.093693256378174 10.042153358459473 8.429170608520508 
331 2 9.733691215515137 6.575082778930664 5.747883319854736 
332 2 -7.065426826477051 -3.960048437118530 4.327854156494141 
333 2 -2.354388475418091 -7.682398796081543 -6.798717975616455 
334 2 -6.441277503967285 1.743756055831909 -8.996157646179199 
335 2 3.039103507995605 6.119750976562500 -3.609840393066406 
336 2 5.897856712341309 -3.713581323623657 -0.075006313621998 
337 2 7.826659202575684 -10.978396415710449 -1.336150646209717 
338 2 -1.328724145889282 -5.768043041229248 10.753724098205566 
339 2 -9.599560737609863 0.737108349800110 -1.058649659156799 
340 2 -8.964626312255859 -6.316229820251465 -4.511909961700439 
341 2 7.257644653320312 9.803200721740723 -2.609254121780396 
342 2 7.934444904327393 3.619796991348267 10.645355224609375 
343 2 -11.155473709106445 5.309673309326172 5.336679935455322 
344 2 8.394345283508301 7.740530014038086 -8.136803627014160 
345 2 -4.990090370178223 4.730548381805420 -7.412256240844727 
346 2 -11.163484573364258 2.947586297988892 -1.220511913299561 
347 2 5.038264274597168 -2.767661094665527 5.364264965057373 
348 2 10.461016654968262 4.826400756835938 -2.451161623001099 
349 2 4.697699069976807 7.800585269927979 9.819134712219238 
350 2 9.525208473205566 -10.969410896301270 1.085761785507202 
351 2 -5.043190002441406 -7.439290046691895 -6.219745159149170 
352 2 4.927987575531006 3.022941827774048 11.045444488525391 
353 2 -6.536037445068359 11.608872413635254 4.172205924987793 
354 2 1.120487332344055 -4.957520961761475 6.303981304168701 
355 2 3.646932601928711 -10.712575912475586 8.550159454345703 
356 2 2.424809694290161 -5.926841735839844 1.792605638504028 
357 2 3.539276361465454 -2.228855848312378 10.032377243041992 
358 2 1.997089147567749 -1.934577345848083 -4.580733776092529 
359 2 -4.166615009307861 -9.029122352600098 -1.913114905357361 
360 2 9.960638046264648 1.944953680038452 3.085577249526978 
361 2 -11.573482513427734 -5.958082675933838 7.060037136077881 
362 2 3.322297573089600 11.626348495483398 -0.084898971021175 
363 2 8.733174324035645 -2.393994092941284 -8.266799926757812 
364 2 -8.685575485229492 -3.673857927322388 -10.851506233215332 
365 2 -9.482256889343262 6.801012039184570 6.829406261444092 
366 2 -4.513983249664307 11.143376350402832 -3.989353895187378 
367 2 -7.654669284820557 4.468658447265625 -10.606328964233398 
368 2 -0.797027528285980 -5.591800212860107 -2.357301235198975 
369 2 0.279470622539520 -7.666929244995117 -9.640477180480957 
370 2 -2.247313737869263 8.784556388854980 -7.628277778625488 
371 2 -8.311542510986328 -5.979817867279053 -6.956594944000244 
372 2 -4.336837768554688 -7.389917373657227 3.301568746566772 
373 2 -2.500349044799805 -1.820063591003418 8.196659088134766 
374 2 11.252358436584473 5.208439826965332 -4.844264984130859 
375 2 -1.718155503273010 -3.160803556442261 10.877475738525391 
376 2 -0.148856133222580 -6.470003128051758 0.461430698633194 
377 2 4.564438819885254 -2.194646358489990 -5.482074737548828 
378 2 10.208423614501953 -3.828812599182129 -3.123030185699463 
379 2 6.879401683807373 -9.941088676452637 -11.176888465881348 
380 2 -11.556702613830566 -8.205206871032715 5.513277053833008 
381 2 -6.879218101501465 4.562086582183838 3.057303428649902 
382 2 10.519102096557617 9.737243652343750 1.562299013137817 
383 2 -5.402992248535156 -0.424022078514099 -1.464295864105225 
384 2 -0.391798019409180 -8.182107925415039 10.678558349609375 
385 2 -9.914002418518066 8.696409225463867 -9.868792533874512 
386 2 -7.269142150878906 4.336740016937256 -3.105956315994263 
387 2 -4.853837490081787 3.127280950546265 8.520556449890137 
388 2 7.096147060394287 6.938695907592773 -2.741607904434204 
389 2 -7.983787059783936 7.843258857727051 -3.813089370727539 
390 2 4.044728279113770 9.927991867065430 7.632163524627686 
391 2 -11.210784912109375 -0.513949632644653 9.105645179748535 
392 2 1.978046298027039 5.387830734252930 -6.947938442230225 
393 2 -7.440926551818848 -1.225318193435669 -6.199137687683105 
394 2 4.795728206634521 -0.004585570655763 3.845714569091797 
395 2 -1.028474450111389 5.169392108917236 1.685561895370483 
396 2 10.893865585327148 -1.986063718795776 4.143336772918701 
397 2 -6.552299022674561 3.354725360870361 -5.621149539947510 
398 2 -0.936242401599884 -0.921489238739014 -6.619749546051025 
399 2 -3.754424571990967 -9.913943290710449 9.127153396606445 
400 2 -0.451411902904510 6.952570438385010 -8.046522140502930 
401 2 9.828722953796387 -4.611449241638184 3.710178136825562 
402 2 -10.982920646667480 -4.565787792205811 4.887233257293701 
403 2 -6.466768264770508 -5.055131912231445 -3.181549549102783 
404 2 3.616742849349976 -3.225659608840942 1.713566660881042 
405 2 -8.038332939147949 -5.057296276092529 0.530572056770325 
406 2 2.846671104431152 0.472035527229309 6.239697933197021 
407 2 5.686994075775146 -0.217682704329491 6.450482845306396 
408 2 -10.111082077026367 -6.594026088714600 0.666463553905487 
409 2 5.145274162292480 -5.859396457672119 1.150521636009216 
410 2 5.581169605255127 -4.218374252319336 -10.564734458923340 
411 2 1.113828659057617 -2.163578987121582 0.659815073013306 
412 2 -1.006343603134155 -10.035559654235840 2.426210880279541 
413 2 -4.903020381927490 7.584531307220459 -7.802997112274170 
414 2 -7.520073413848877 -1.530019760131836 -0.264724016189575 
415 2 3.852944850921631 -5.353278636932373 5.837460041046143 
416 2 9.550728797912598 -1.702996492385864 6.165863037109375 
417 2 8.389288902282715 -4.223252296447754 9.000679016113281 
418 2 -6.273342609405518 -10.886895179748535 -5.546430587768555 
419 2 -1.193875432014465 -0.720510065555573 10.485644340515137 
420 2 3.506250858306885 7.786777973175049 -7.631591796875000 
421 2 -10.617239952087402 0.726691663265228 6.673681735992432 
422 2 9.317825317382812 7.290980815887451 -4.298091888427734 
423 2 -2.051827907562256 4.355887889862061 6.178786277770996 
424 2 4.142931938171387 -9.716661453247070 1.275403022766113 
425 2 -0.510567605495453 -10.905257225036621 6.091547489166260 
426 2 -6.768600940704346 -0.570904672145844 3.438316583633423 
427 2 8.033150672912598 -2.108781576156616 -0.421279788017273 
428 2 -2.647330522537231 -1.631238937377930 -1.304483175277710 
429 2 3.927090167999268 2.811917066574097 -4.537046432495117 
430 2 1.887265563011169 -10.056666374206543 -8.549920082092285 
431 2 -5.298423767089844 8.614648818969727 9.845058441162109 
432 2 -11.155316352844238 -10.044849395751953 3.505439758300781 
433 2 -10.577613830566406 8.022431373596191 4.880311012268066 
434 2 6.118874549865723 -5.244816303253174 7.349301338195801 
435 2 -1.693138241767883 -6.255548954010010 4.981128215789795 
436 2 9.940363883972168 0.438276052474976 -2.968223571777344 
437 2 -11.124310493469238 -3.731230497360229 1.997541189193726 
438 2 -4.690935134887695 10.423338890075684 -8.533499717712402 
439 2 -3.557896137237549 -10.292216300964355 3.771348953247070 
440 2 -1.485294938087463 1.727197289466858 4.735571861267090 
441 2 -6.903347969055176 -10.928592681884766 0.025956721976399 
442 2 1.591653704643250 8.487108230590820 11.215102195739746 
443 2 -0.512419760227203 -9.434289932250977 -7.609756946563721 
444 2 -6.857511520385742 4.555539608001709 0.639121472835541 
445 2 -7.273538112640381 1.223372459411621 -6.752335548400879 
446 2 7.422020435333252 1.345003724098206 3.970741510391235 
447 2 -6.589108943939209 0.794705867767334 9.052111625671387 
448 2 0.243420198559761 3.582177639007568 3.943076610565186 
449 2 9.410949707031250 5.881076335906982 -6.815848827362061 
450 2 11.560633659362793 -6.592860698699951 3.597281694412231 
451 2 0.772803604602814 1.929564952850342 6.018655300140381 
452 2 2.756782770156860 -1.592506289482117 4.274681091308594 
453 2 2.622137546539307 -1.792653083801270 -1.557467818260193 
454 2 -4.608020782470703 3.188566207885742 1.802141547203064 
455 2 10.118813514709473 0.757173657417297 5.852961540222168 
456 2 -6.481637954711914 11.246596336364746 7.120502471923828 
457 2 4.082372188568115 8.105650901794434 -10.598237037658691 
458 2 -3.113085746765137 0.370027214288712 9.372867584228516 
459 2 6.057372570037842 5.217634201049805 9.476486206054688 
460 2 -1.921620965003967 -5.538911342620850 7.460696697235107 
461 2 6.902027130126953 8.360320091247559 -10.382241249084473 
462 2 11.344986915588379 5.814267158508301 8.045015335083008 
463 2 -1.216064810752869 6.160533428192139 4.071137428283691 
464 2 0.434031575918198 -1.637205123901367 6.289280414581299 
465 2 5.482920169830322 1.982335448265076 -2.578106403350830 
466 2 9.814518928527832 -4.509386539459229 6.284819126129150 
467 2 -4.735017776489258 4.572872161865234 10.697261810302734 
468 2 9.580141067504883 -10.668646812438965 -10.694904327392578 
469 2 -8.859714508056641 -9.417301177978516 5.023207664489746 
470 2 -8.899665832519531 -8.954503059387207 0.105969339609146 
471 2 2.481981515884399 -7.275628089904785 5.317002773284912 
472 2 0.340210884809494 0.573111534118652 -10.282255172729492 
473 2 6.699696540832520 -7.429082393646240 -5.227742671966553 
474 2 -2.450788259506226 -6.649545192718506 -9.862818717956543 
475 2 -0.947773158550262 9.977981567382812 -0.676140606403351 