ITEM: TIMESTEP
0
ITEM: NUMBER OF ATOMS
1008
ITEM: BOX BOUNDS xy xz yz pp pp pp
0.0 23.3006801605 0.0
0.0 23.3006801605 0.0
0.0 23.3006801605 0.0
ITEM: ATOMS id type x y z
1 1 3.716629028320312 -6.877979755401611 -7.646961688995361 
2 1 0.092486642301083 6.100110530853271 -1.335927248001099 
3 1 -10.970236778259277 5.572661399841309 -3.268466234207153 
4 1 -1.381945371627808 3.115562915802002 -1.450919032096863 
5 1 5.873205661773682 -11.585411071777344 -11.499218940734863 
6 1 0.061265893280506 -2.468098878860474 10.333312988281250 
7 1 8.121844291687012 0.195383921265602 -3.317482471466064 
8 1 -4.029063224792480 -1.226419568061829 -4.670403480529785 
9 1 -9.713305473327637 10.357159614562988 -1.636348605155945 
10 1 5.298393249511719 -0.264880478382111 -9.549722671508789 
11 1 9.651744842529297 2.071509122848511 7.030102729797363 
12 1 9.069444656372070 -2.792019367218018 4.456976890563965 
13 1 0.856829464435577 3.364904880523682 9.673797607421875 
14 1 -6.777435302734375 4.504154205322266 -1.267403364181519 
15 1 -5.372686386108398 -3.845620393753052 5.457347393035889 
16 1 2.967657804489136 -8.989229202270508 4.415398597717285 
17 1 -10.353936195373535 3.623789310455322 5.804352283477783 
18 1 -9.516570091247559 2.274857997894287 -2.327999114990234 
19 1 -0.713945329189301 -1.457896351814270 4.981937408447266 
20 1 -10.268816947937012 -2.651156902313232 8.294341087341309 
21 1 10.853478431701660 -5.657389640808105 5.244288921356201 
22 1 0.115352980792522 -7.352491378784180 -3.255101442337036 
23 1 -5.806631088256836 -7.136759757995605 7.359111785888672 
24 1 7.713198184967041 4.541495323181152 9.068178176879883 
25 1 7.253828525543213 -2.720723152160645 9.278129577636719 
26 1 -5.599287986755371 6.770732402801514 7.009636878967285 
27 1 8.111782073974609 -10.814842224121094 2.409049987792969 
28 1 0.453890502452850 10.282752037048340 6.099649906158447 
29 1 -2.987663745880127 -11.002870559692383 -4.401963233947754 
30 1 -6.069169998168945 2.897372245788574 -7.509725093841553 
31 1 -1.404479026794434 5.106224536895752 -7.459514617919922 
32 1 -11.506336212158203 6.856267929077148 6.385973453521729 
33 1 4.575328826904297 6.138533115386963 1.231800436973572 
34 1 2.150060176849365 3.419235706329346 0.021373195573688 
35 1 0.497275739908218 -1.697914600372314 -5.509545326232910 
36 1 -10.562806129455566 -11.373916625976562 10.216450691223145 
37 1 11.537394523620605 -0.654515743255615 5.505525112152100 
38 1 -4.721204280853271 1.448496699333191 -1.325941324234009 
39 1 4.809880733489990 -3.891929388046265 -6.033545017242432 
40 1 -7.321733474731445 -4.501341342926025 2.473852872848511 
41 1 -3.166328191757202 -6.789684295654297 -5.034763813018799 
42 1 3.067707061767578 -10.240104675292969 -9.924710273742676 
43 1 -8.537041664123535 5.301171779632568 -9.060326576232910 
44 1 -2.277331352233887 -8.956386566162109 -1.579296827316284 
45 1 -8.397092819213867 10.687930107116699 7.694207668304443 
46 1 0.712581455707550 9.113463401794434 9.601733207702637 
47 1 7.352002143859863 -9.010063171386719 -4.428565502166748 
48 1 4.829898357391357 -8.933156013488770 8.832309722900391 
49 1 3.653140068054199 11.434046745300293 -5.743046760559082 
50 1 -10.721555709838867 -5.620551109313965 2.162454605102539 
51 1 -5.867093086242676 10.961360931396484 5.324352264404297 
52 1 -11.023159980773926 -0.486807376146317 -1.008275985717773 
53 1 -1.889679431915283 1.047486305236816 1.085420250892639 
54 1 -1.362193346023560 -0.568353176116943 -2.246934890747070 
55 1 3.623584032058716 -4.201972961425781 9.949547767639160 
56 1 2.930406570434570 8.207919120788574 -4.203979015350342 
57 1 6.787287712097168 -5.794793128967285 -10.502436637878418 
58 1 3.788890123367310 5.476697921752930 -1.916384696960449 
59 1 3.754032373428345 9.406805992126465 -8.994639396667480 
60 1 0.510408937931061 5.468214988708496 2.824039220809937 
61 1 2.494667053222656 0.934335470199585 -7.306604862213135 
62 1 8.576263427734375 7.571975231170654 -5.997371196746826 
63 1 -1.771739125251770 -5.471405506134033 -0.350508868694305 
64 1 -5.101434707641602 -6.374876976013184 0.743991374969482 
65 1 8.781993865966797 6.170728683471680 -2.674248695373535 
66 1 0.271682381629944 -3.591521024703979 -8.845167160034180 
67 1 5.443361759185791 -3.770313501358032 1.810424804687500 
68 1 9.335292816162109 7.244344234466553 11.097420692443848 
69 1 -11.494886398315430 -9.643456459045410 -2.372574090957642 
70 1 -6.771759033203125 -2.992399930953979 -6.518217563629150 
71 1 -1.074916243553162 9.503330230712891 -6.054688453674316 
72 1 3.846492528915405 1.172606110572815 2.558993101119995 
73 1 -7.422951698303223 0.472527533769608 -5.022845745086670 
74 1 -3.480080127716064 4.550540447235107 -10.287866592407227 
75 1 -10.567191123962402 -6.107977390289307 10.935338973999023 
76 1 3.588245391845703 10.634020805358887 3.675184488296509 
77 1 3.141461610794067 10.332537651062012 -1.593631982803345 
78 1 10.773384094238281 11.259959220886230 0.212342575192451 
79 1 3.999213218688965 -9.664017677307129 -2.941483497619629 
80 1 10.086503028869629 0.616416096687317 -9.778759956359863 
81 1 -9.859604835510254 0.696771323680878 8.407855987548828 
82 1 1.743780970573425 -6.390941143035889 0.121485702693462 
83 1 -2.595521450042725 9.491126060485840 0.191607639193535 
84 1 1.914950966835022 -0.734080016613007 -10.327347755432129 
85 1 -7.760661602020264 -3.165654659271240 10.856971740722656 
86 1 -8.395973205566406 9.565291404724121 1.767707586288452 
87 1 7.676196098327637 8.197827339172363 8.073548316955566 
88 1 -2.747119426727295 1.729590177536011 -6.548454761505127 
89 1 -2.877144098281860 5.404988288879395 4.740410804748535 
90 1 9.600827217102051 -4.280026435852051 -8.439297676086426 
91 1 3.348601579666138 -11.634233474731445 6.945768356323242 
92 1 3.643377780914307 1.706852674484253 -3.043550252914429 
93 1 -7.144083499908447 8.097473144531250 10.188053131103516 
94 1 -8.623085975646973 7.833101749420166 5.088619709014893 
95 1 -9.018135070800781 10.138497352600098 -10.385372161865234 
96 1 5.650631427764893 4.822522163391113 -9.804674148559570 
97 1 -2.132768630981445 -9.574530601501465 9.763833045959473 
98 1 10.559974670410156 -7.388990402221680 -0.039144530892372 
99 1 0.209418907761574 -7.233228683471680 9.933495521545410 
100 1 -7.082742691040039 8.173372268676758 -2.053752422332764 
101 1 4.117753505706787 -1.018994688987732 5.579999923706055 
102 1 6.896753787994385 1.576347470283508 11.113034248352051 
103 1 0.477669209241867 -9.854490280151367 7.200488567352295 
104 1 -10.190996170043945 0.695786297321320 -11.372489929199219 
105 1 7.291657447814941 11.212796211242676 -5.672080516815186 
106 1 -9.582650184631348 -1.803494453430176 -4.266346454620361 
107 1 -5.171158313751221 -4.956542968750000 10.191988945007324 
108 1 -1.621154785156250 6.123145103454590 -4.346848964691162 
109 1 -10.612862586975098 8.032962799072266 -8.146070480346680 
110 1 -1.287012219429016 6.375645160675049 10.725827217102051 
111 1 -1.827912807464600 7.742139339447021 -9.285519599914551 
112 1 7.584275245666504 -7.547697067260742 3.961712121963501 
113 1 11.200964927673340 0.628128230571747 -4.642550945281982 
114 1 11.383255004882812 9.041645050048828 -4.444756031036377 
115 1 6.804349422454834 3.610148906707764 -3.168165445327759 
116 1 -7.954189777374268 -7.617361068725586 4.218801021575928 
117 1 -2.293348789215088 -3.773095607757568 7.640192031860352 
118 1 -2.936435222625732 9.029793739318848 6.461080074310303 
119 1 3.454359769821167 -6.964272975921631 -11.497075080871582 
120 1 11.132364273071289 9.588704109191895 8.721363067626953 
121 1 9.859948158264160 4.074940681457520 -5.534008026123047 
122 1 -6.593401432037354 11.393646240234375 -4.130612850189209 
123 1 -11.641838073730469 4.002358913421631 8.998085021972656 
124 1 7.480524539947510 -11.480889320373535 8.689754486083984 
125 1 -7.065854549407959 0.524508059024811 11.052761077880859 
126 1 -9.881244659423828 1.515061140060425 3.051361322402954 
127 1 -10.741824150085449 2.689103126525879 -7.602160930633545 
128 1 -3.072396278381348 0.078086055815220 7.455983161926270 
129 1 2.645145177841187 -6.235230445861816 7.073598384857178 
130 1 -3.857418060302734 -4.486043453216553 -8.001717567443848 
131 1 -3.685140371322632 6.356532573699951 -1.491962790489197 
132 1 4.883538722991943 -7.708076953887939 1.346626043319702 
133 1 -5.565521717071533 7.518048286437988 -9.612853050231934 
134 1 -7.918550968170166 0.275826007127762 -8.561328887939453 
135 1 7.206572055816650 9.611937522888184 -8.943262100219727 
136 1 -8.292444229125977 -8.854044914245605 8.989720344543457 
137 1 -1.566408753395081 -4.072932243347168 -3.553152561187744 
138 1 -7.348613262176514 -0.740202367305756 1.599679350852966 
139 1 -5.250020027160645 -10.795388221740723 8.323496818542480 
140 1 -4.312885761260986 3.570276975631714 -3.728297472000122 
141 1 8.458881378173828 -9.054735183715820 -10.618500709533691 
142 1 1.515068054199219 8.488142013549805 1.222806096076965 
143 1 0.380582988262177 1.939157605171204 3.929433822631836 
144 1 8.724659919738770 11.011048316955566 -2.400997877120972 
145 1 7.322477817535400 -9.182822227478027 -0.823490917682648 
146 1 -11.473640441894531 -2.686033487319946 -11.065136909484863 
147 1 -1.862503767013550 1.122036099433899 10.399403572082520 
148 1 5.764595508575439 0.927982926368713 -0.557720541954041 
149 1 -4.751504421234131 -4.695279598236084 -2.560830831527710 
150 1 6.549053192138672 -2.457416772842407 -1.538024544715881 
151 1 9.531020164489746 10.874087333679199 -11.456713676452637 
152 1 1.112783908843994 -2.943180322647095 -1.125427126884460 
153 1 -1.397135972976685 -2.676516532897949 1.931886196136475 
154 1 5.194394588470459 7.024407386779785 -6.842857360839844 
155 1 9.353251457214355 -1.652152538299561 0.781264245510101 
156 1 -6.511736392974854 2.956437349319458 1.762380480766296 
157 1 5.874087810516357 1.829727172851562 7.443249225616455 
158 1 10.032353401184082 -0.366316765546799 9.905948638916016 
159 1 -7.599215030670166 6.127338886260986 2.045663833618164 
160 1 -3.704135179519653 4.359979152679443 9.306644439697266 
161 1 -6.772487640380859 0.727108836174011 4.893287658691406 
162 1 -3.608754158020020 9.325568199157715 9.928759574890137 
163 1 11.550286293029785 -7.318438529968262 -9.102598190307617 
164 1 -1.958984613418579 -4.927427768707275 -11.320033073425293 
165 1 7.651088714599609 4.146326065063477 0.312964200973511 
166 1 -7.377718448638916 10.334747314453125 -7.211814403533936 
167 1 -5.556783676147461 -8.493375778198242 -2.972473859786987 
168 1 8.110204696655273 -2.445816755294800 -10.336668014526367 
169 1 0.840372264385223 -9.104478836059570 -6.791401386260986 
170 1 -0.278522342443466 9.450444221496582 -2.594338417053223 
171 1 6.942967891693115 -5.898488044738770 9.025363922119141 
172 1 -8.502291679382324 7.302784442901611 -5.520922183990479 
173 1 3.496072292327881 -2.133991241455078 -3.334527015686035 
174 1 3.078033208847046 -5.679583072662354 3.692120075225830 
175 1 -11.255834579467773 -9.450590133666992 6.987477302551270 
176 1 -4.970085620880127 6.135681152343750 -6.168722629547119 
177 1 9.007094383239746 -4.957637786865234 1.792061209678650 
178 1 4.903440475463867 4.069375991821289 4.457744598388672 
179 1 5.991383075714111 -9.977793693542480 -7.915237426757812 
180 1 -10.960829734802246 4.339750766754150 -11.035306930541992 
181 1 -10.932279586791992 -1.899256229400635 -7.845214843750000 
182 1 2.282195806503296 -9.837027549743652 0.216620445251465 
183 1 3.997614860534668 8.165345191955566 8.054669380187988 
184 1 -3.922592878341675 -8.846858024597168 -10.304542541503906 
185 1 -7.268397331237793 -7.172806262969971 -10.929510116577148 
186 1 0.376986265182495 1.554268598556519 -4.473042488098145 
187 1 -5.233137607574463 -1.926952481269836 -10.170928955078125 
188 1 9.361977577209473 8.296348571777344 0.324262827634811 
189 1 9.593501091003418 5.806657314300537 -8.612525939941406 
190 1 2.344433307647705 -10.587163925170898 10.231837272644043 
191 1 -6.697825431823730 4.360581874847412 11.219330787658691 
192 1 10.458154678344727 10.679014205932617 -7.307400226593018 
193 1 -0.571595668792725 11.593884468078613 1.904618978500366 
194 1 2.321475982666016 7.066933631896973 -11.175907135009766 
195 1 -8.885769844055176 -8.336586952209473 -4.413938999176025 
196 1 5.856532096862793 -4.515873432159424 5.585269451141357 
197 1 -8.387645721435547 -4.790054798126221 -3.429122924804688 
198 1 7.634044170379639 2.362405776977539 -7.969334602355957 
199 1 8.954952239990234 -1.134781122207642 -6.735842704772949 
200 1 10.814833641052246 -3.960909605026245 -1.307334423065186 
201 1 -9.511706352233887 -11.000933647155762 4.400271415710449 
202 1 3.883750438690186 -3.795792341232300 -9.724238395690918 
203 1 8.323894500732422 3.016742706298828 3.775427103042603 
204 1 -8.477721214294434 -7.059072971343994 -0.396403253078461 
205 1 -6.758388042449951 2.615044832229614 8.102285385131836 
206 1 10.377196311950684 5.734675884246826 2.232262849807739 
207 1 -6.420596122741699 -6.483528614044189 -7.406201839447021 
208 1 -2.473438262939453 -10.804193496704102 -7.946027755737305 
209 1 -0.063573032617569 -8.131621360778809 2.509846210479736 
210 1 5.479173660278320 -0.261446565389633 -5.886092662811279 
211 1 5.764193058013916 7.999894618988037 11.376459121704102 
212 1 -4.135677337646484 -1.004488825798035 3.268859386444092 
213 1 2.646684169769287 6.088335514068604 5.871797561645508 
214 1 6.169504165649414 -10.331709861755371 5.504334926605225 
215 1 -1.462903499603271 10.791033744812012 -11.254837036132812 
216 1 6.608429908752441 9.153409004211426 1.968030214309692 
217 1 -2.216487169265747 -1.144255280494690 -7.983136177062988 
218 1 4.907015323638916 3.342509746551514 -6.238241672515869 
219 1 7.046120166778564 -6.275598049163818 -6.764856815338135 
220 1 -6.507441997528076 -1.184847354888916 7.877107620239258 
221 1 -1.041058063507080 8.314961433410645 3.463285923004150 
222 1 -2.004946470260620 -7.441123962402344 6.724554061889648 
223 2 -5.302073955535889 -1.124475240707397 1.589102745056152 
224 2 -9.125349998474121 8.499238967895508 -1.455434679985046 
225 2 10.359633445739746 9.626592636108398 4.698153495788574 
226 2 6.456892967224121 2.701261997222900 -0.275459021329880 
227 2 -4.418358802795410 -8.040120124816895 1.141162514686584 
228 2 9.295543670654297 -2.727380752563477 -5.433140277862549 
229 2 9.190426826477051 -8.826771736145020 -5.221493721008301 
230 2 -8.150135040283203 7.756873130798340 1.008113622665405 
231 2 -6.183110713958740 9.597350120544434 -3.359148263931274 
232 2 10.927582740783691 10.964982032775879 10.235873222351074 
233 2 -5.876250743865967 2.783838510513306 -0.530769765377045 
234 2 6.603817462921143 -10.682055473327637 3.691752910614014 
235 2 7.395675182342529 -4.301806926727295 -2.213980674743652 
236 2 10.708468437194824 -5.886802673339844 -1.291667819023132 
237 2 9.025322914123535 10.053462028503418 -8.438019752502441 
238 2 -5.110947608947754 -10.586418151855469 -10.690421104431152 
239 2 11.024298667907715 -3.564046144485474 -7.314120769500732 
240 2 -3.653685092926025 8.126062393188477 -9.711352348327637 
241 2 7.451080799102783 7.685905456542969 10.290257453918457 
242 2 5.986290454864502 3.607901811599731 -8.059322357177734 
243 2 -9.646542549133301 -11.333977699279785 -9.763142585754395 
244 2 -2.793909549713135 8.589735031127930 4.431936264038086 
245 2 -1.267142415046692 9.441988945007324 -9.935882568359375 
246 2 4.351253986358643 -10.608238220214844 -7.002618789672852 
247 2 6.400329113006592 -5.837242126464844 -8.553636550903320 
248 2 9.312780380249023 10.060386657714844 -0.645161628723145 
249 2 -6.335206031799316 -9.014416694641113 8.226585388183594 
250 2 -7.174794197082520 -11.283843994140625 -8.097249031066895 
251 2 -3.944918394088745 10.298245429992676 -1.089348196983337 
252 2 -11.432513236999512 -10.059004783630371 11.442527770996094 
253 2 2.072860479354858 4.215182781219482 8.289810180664062 
254 2 -9.306728363037109 1.613245129585266 -8.332295417785645 
255 2 -11.430747985839844 7.497635841369629 -3.473233938217163 
256 2 -6.874318599700928 10.686614990234375 1.828262329101562 
257 2 10.895245552062988 0.785576045513153 -0.623846530914307 
258 2 10.529046058654785 2.651124000549316 -4.217117786407471 
259 2 11.623349189758301 8.497106552124023 7.283522129058838 
260 2 11.117291450500488 10.891912460327148 -10.336473464965820 
261 2 4.493673801422119 -3.540799617767334 -7.867745399475098 
262 2 4.560986995697021 5.140558242797852 2.851250171661377 
263 2 -0.326843112707138 -8.649627685546875 -1.901581287384033 
264 2 -3.723157167434692 -5.323683261871338 11.398164749145508 
265 2 -3.694166183471680 0.619420349597931 0.114181369543076 
266 2 -3.716721534729004 -3.728682279586792 6.470486640930176 
267 2 -2.254164934158325 -10.536395072937012 -2.690757989883423 
268 2 -4.546608448028564 8.025646209716797 -5.277751445770264 
269 2 9.362348556518555 7.356566429138184 -1.308630824089050 
270 2 -9.865232467651367 10.630578041076660 11.325239181518555 
271 2 -7.885088920593262 -9.012803077697754 -10.110264778137207 
272 2 3.273021936416626 -4.673897266387939 -11.460635185241699 
273 2 -8.663681983947754 -5.930870532989502 -1.883740425109863 
274 2 10.207556724548340 -3.212126255035400 -10.090560913085938 
275 2 -9.119922637939453 -0.070601075887680 2.102077722549438 
276 2 5.522904872894287 -0.979646563529968 -0.844408690929413 
277 2 7.857244014739990 4.611252784729004 -1.618861317634583 
278 2 -3.225407123565674 -0.217039585113525 -6.224156856536865 
279 2 7.199138164520264 8.482256889343262 0.105031915009022 
280 2 -4.708031177520752 -10.814217567443848 1.339647889137268 
281 2 2.514626264572144 -9.587252616882324 -1.644595861434937 
282 2 -10.173110008239746 -3.714218616485596 -3.831636428833008 
283 2 -9.717163085937500 -8.353809356689453 7.593857288360596 
284 2 -8.563589096069336 1.280813932418823 4.418436050415039 
285 2 9.007844924926758 2.114571809768677 -10.371912956237793 
286 2 7.734109401702881 -2.634105443954468 11.151734352111816 
287 2 -2.278046131134033 -1.639009237289429 3.634672641754150 
288 2 9.327560424804688 2.854993581771851 -0.102262921631336 
289 2 -6.774174213409424 6.298381328582764 10.970011711120605 
290 2 -8.546957015991211 9.233491897583008 6.490984916687012 
291 2 11.192643165588379 6.867739677429199 -8.414399147033691 
292 2 1.999357223510742 5.959182262420654 -1.399981260299683 
293 2 -7.889785766601562 -3.390255212783813 -4.883424282073975 
294 2 -3.103320837020874 0.766489326953888 2.680473089218140 
295 2 -10.327248573303223 -6.106332302093506 -8.376616477966309 
296 2 -4.286016941070557 6.304579734802246 5.650396823883057 
297 2 3.575337886810303 -5.818356990814209 -9.232968330383301 
298 2 -1.088902592658997 11.104775428771973 -7.563833713531494 
299 2 -8.764343261718750 -10.235737800598145 -4.229272365570068 
300 2 -1.929737210273743 7.334336757659912 6.554393291473389 
301 2 1.290346145629883 -11.088597297668457 -6.393323421478271 
302 2 -8.208151817321777 1.819461584091187 -3.748271942138672 
303 2 -7.399836540222168 -6.186885833740234 -9.208719253540039 
304 2 -6.756067752838135 -3.996343374252319 9.492002487182617 
305 2 -1.826229691505432 0.863819539546967 -8.272544860839844 
306 2 -2.006588459014893 -9.573867797851562 0.176773235201836 
307 2 -2.580745220184326 3.876452922821045 3.486920356750488 
308 2 2.790052175521851 -0.292757630348206 1.666490197181702 
309 2 2.287172794342041 -3.801276922225952 -2.603465557098389 
310 2 -9.269230842590332 -3.989473819732666 7.132006645202637 
311 2 7.501400947570801 -11.517825126647949 6.435554027557373 
312 2 -5.035908699035645 -2.286947965621948 -6.018904685974121 
313 2 5.860242843627930 8.009590148925781 7.073504924774170 
314 2 1.322577595710754 -6.169502258300781 -4.268027782440186 
315 2 3.862139701843262 4.096944332122803 -9.847799301147461 
316 2 0.134159743785858 8.963754653930664 4.789264202117920 
317 2 0.901995658874512 -10.935702323913574 0.993072271347046 
318 2 -7.944326877593994 -3.528104066848755 -7.895801544189453 
319 2 5.966713428497314 -10.814166069030762 9.762599945068359 
320 2 -11.111476898193359 -11.062966346740723 0.877328038215637 
321 2 -3.430613756179810 -4.843723773956299 -4.119767189025879 
322 2 1.706971645355225 7.340334415435791 -5.473740100860596 
323 2 -8.523747444152832 1.956956863403320 7.833095073699951 
324 2 10.183962821960449 -8.694314002990723 -9.334081649780273 
325 2 -5.133522987365723 -10.374604225158691 6.328885078430176 
326 2 11.399158477783203 -0.920932650566101 -9.419082641601562 
327 2 -10.673482894897461 -3.940464496612549 -0.934318840503693 
328 2 -2.148515224456787 2.992964982986450 0.443273663520813 
329 2 8.365855216979980 11.387224197387695 10.343476295471191 
330 2 7.141335487365723 9.980240821838379 8.491041183471680 
331 2 9.890350341796875 6.720210552215576 5.847343444824219 
332 2 -7.129261493682861 -3.826707601547241 4.356844425201416 
333 2 -2.574886560440063 -8.035457611083984 -6.417387962341309 
334 2 -6.418986320495605 1.549350976943970 -9.061864852905273 
335 2 3.082077741622925 6.120834350585938 -3.679679870605469 
336 2 5.896797657012939 -3.671267747879028 -0.146894335746765 
337 2 7.809932231903076 -10.965420722961426 -1.346159338951111 
338 2 -1.018430471420288 -6.031763076782227 10.732200622558594 
339 2 -9.546820640563965 0.826820313930511 -1.039603471755981 
340 2 -8.995707511901855 -6.276721000671387 -4.461942195892334 
341 2 7.244501113891602 9.832339286804199 -2.601980447769165 
342 2 7.900143623352051 3.112322092056274 10.437162399291992 
343 2 -11.245983123779297 5.251435279846191 5.364826202392578 
344 2 8.459234237670898 7.508538722991943 -8.027724266052246 
345 2 -4.953445434570312 4.553437232971191 -7.384207725524902 
346 2 -11.142085075378418 3.052255153656006 -1.194791793823242 
347 2 5.016882419586182 -2.736775159835815 5.411152839660645 
348 2 10.448139190673828 4.918132305145264 -2.357660531997681 
349 2 4.969008922576904 7.828476905822754 9.657710075378418 
350 2 9.544239997863770 -10.933321952819824 1.155958414077759 
351 2 -5.036100864410400 -7.242787361145020 -6.058065414428711 
352 2 5.212729454040527 2.501462936401367 11.614275932312012 
353 2 -5.900409221649170 -11.037854194641113 3.950586318969727 
354 2 1.147172331809998 -4.901483535766602 6.349152565002441 
355 2 3.488022089004517 -10.599777221679688 8.649201393127441 
356 2 2.427880525588989 -5.865417003631592 1.849510073661804 
357 2 3.694640874862671 -2.373187065124512 10.356003761291504 
358 2 2.060209512710571 -1.907985568046570 -4.514569759368896 
359 2 -4.209043025970459 -8.999724388122559 -1.728267073631287 
360 2 9.835150718688965 2.206851482391357 2.985450267791748 
361 2 -11.547088623046875 -5.988806724548340 7.062381267547607 
362 2 3.212437868118286 -11.543432235717773 -0.122101783752441 
363 2 8.760693550109863 -2.427894830703735 -8.214320182800293 
364 2 -8.473818778991699 -3.730426311492920 -10.853128433227539 
365 2 -9.459953308105469 6.688608169555664 6.696974277496338 
366 2 -4.475261211395264 11.261845588684082 -3.854690074920654 
367 2 -7.857197761535645 4.381455421447754 -10.661846160888672 
368 2 -0.731323003768921 -5.602157115936279 -2.280823707580566 
369 2 0.013756385073066 -7.708820343017578 -9.309061050415039 
370 2 -2.319881916046143 8.602725982666016 -7.511124610900879 
371 2 -8.163002014160156 -5.926011562347412 -6.801442623138428 
372 2 -4.077565193176270 -7.604072570800781 3.820084571838379 
373 2 -2.610492467880249 -1.832223653793335 8.133449554443359 
374 2 11.216239929199219 5.201768875122070 -4.767303466796875 
375 2 -1.583309769630432 -3.343683481216431 10.848707199096680 
376 2 -0.224977642297745 -6.354942798614502 0.480446219444275 
377 2 4.689317703247070 -2.046827793121338 -5.406401157379150 
378 2 10.259553909301758 -3.726381778717041 -3.128938436508179 
379 2 6.854769706726074 -9.931804656982422 -11.262671470642090 
380 2 -11.520605087280273 -8.262917518615723 5.525136947631836 
381 2 -6.810361385345459 4.650835037231445 3.116638898849487 
382 2 10.551518440246582 9.777612686157227 1.570287823677063 
383 2 -5.361998081207275 -0.349051803350449 -1.462378144264221 
384 2 -0.561581313610077 -8.727498054504395 11.055979728698730 
385 2 -10.338868141174316 8.483750343322754 -10.055063247680664 
386 2 -7.302965641021729 4.381895065307617 -3.071515083312988 
387 2 -5.010320663452148 3.114533662796021 8.520361900329590 
388 2 7.019352912902832 6.985371112823486 -2.608788728713989 
389 2 -7.905754089355469 7.772742271423340 -3.767098903656006 
390 2 4.030758857727051 10.119110107421875 7.743282318115234 
391 2 -11.205172538757324 -0.671672701835632 9.085963249206543 
392 2 1.909255385398865 5.354822158813477 -7.038988113403320 
393 2 -7.410425662994385 -1.219055414199829 -6.297045230865479 
394 2 4.807149887084961 -0.063139274716377 3.887431383132935 
395 2 -1.078840374946594 5.336970329284668 1.607299208641052 
396 2 10.902184486389160 -1.931787729263306 4.072700500488281 
397 2 -6.528005123138428 3.163141965866089 -5.611562728881836 
398 2 -0.885916411876678 -1.206229329109192 -6.623441696166992 
399 2 -3.683971166610718 -9.765232086181641 8.715919494628906 
400 2 -0.485815376043320 6.885394573211670 -8.035172462463379 
401 2 9.822264671325684 -4.521724224090576 3.683133602142334 
402 2 -11.051565170288086 -4.443650245666504 4.993947982788086 
403 2 -6.447175502777100 -4.982265472412109 -3.352555990219116 
404 2 3.647339344024658 -3.155356884002686 1.694917082786560 
405 2 -8.323476791381836 -4.837567329406738 0.663100957870483 
406 2 2.986096858978271 0.675868451595306 6.186099529266357 
407 2 5.664797782897949 -0.107755839824677 6.596496582031250 
408 2 -10.190687179565430 -6.602688789367676 0.532891929149628 
409 2 5.178618907928467 -5.784158229827881 1.091082692146301 
410 2 5.577375888824463 -4.171875000000000 -10.551898002624512 
411 2 1.167358636856079 -2.113650560379028 0.685601651668549 
412 2 -0.972407162189484 -9.928284645080566 2.566318035125732 
413 2 -5.008600711822510 7.324669361114502 -7.681093692779541 
414 2 -7.529868125915527 -1.429362773895264 -0.299334675073624 
415 2 3.929340124130249 -5.363058090209961 5.687157630920410 
416 2 9.567631721496582 -1.787019133567810 6.116816997528076 
417 2 8.356986045837402 -4.326489925384521 9.022131919860840 
418 2 -6.333619117736816 -10.523074150085449 -5.497355937957764 
419 2 -1.261936664581299 -0.824290812015533 10.418252944946289 
420 2 3.534207820892334 7.671812534332275 -7.894362449645996 
421 2 -10.607557296752930 0.597686529159546 6.648180961608887 
422 2 9.208177566528320 7.286575317382812 -4.186325550079346 
423 2 -1.923051834106445 4.558720588684082 6.230967521667480 
424 2 4.093764781951904 -9.608540534973145 1.218855977058411 
425 2 -0.071533210575581 -10.998958587646484 5.672029972076416 
426 2 -6.810983180999756 -0.512413263320923 3.448758840560913 
427 2 8.029636383056641 -2.063845634460449 -0.428025245666504 
428 2 -2.583266496658325 -1.571384668350220 -1.222648978233337 
429 2 3.905965328216553 2.900718688964844 -4.559933185577393 
430 2 1.462474822998047 -10.058525085449219 -8.732134819030762 
431 2 -5.302938461303711 8.558529853820801 9.792036056518555 
432 2 -11.081255912780762 -9.977443695068359 3.516859292984009 
433 2 -10.602517127990723 8.016084671020508 4.835392951965332 
434 2 6.159100055694580 -5.374665260314941 7.333314895629883 
435 2 -1.703729510307312 -6.320381641387939 5.057833194732666 
436 2 9.984890937805176 0.411043792963028 -2.938602447509766 
437 2 -11.043121337890625 -3.689647674560547 1.934212684631348 
438 2 -5.858740329742432 9.549849510192871 -8.595584869384766 
439 2 -3.397248268127441 -10.209974288940430 3.796305894851685 
440 2 -1.449447631835938 1.968355059623718 4.805640220642090 
441 2 -6.858666896820068 -10.838985443115234 -0.076105915009975 
442 2 1.169386982917786 8.235100746154785 11.324427604675293 
443 2 -0.881853163242340 -9.622996330261230 -7.718117237091064 
444 2 -6.875119686126709 4.712038040161133 0.703642487525940 
445 2 -7.190828800201416 1.169062852859497 -6.816632747650146 
446 2 7.409906387329102 1.411156654357910 3.963792800903320 
447 2 -6.628564357757568 0.740355610847473 9.053344726562500 
448 2 0.327872455120087 3.853684902191162 3.769183158874512 
449 2 9.325763702392578 5.748549461364746 -6.575504302978516 
450 2 11.592139244079590 -6.511065959930420 3.626254558563232 
451 2 0.765756845474243 2.338232040405273 5.962966442108154 
452 2 2.732643842697144 -1.558968901634216 4.343706130981445 
453 2 2.680564641952515 -1.676645159721375 -1.532436370849609 
454 2 -4.604615688323975 3.242153882980347 1.831202864646912 
455 2 10.189279556274414 0.696362316608429 5.792623519897461 
456 2 -6.391821861267090 10.997514724731445 7.272457599639893 
457 2 3.848674774169922 8.242033958435059 -10.736529350280762 
458 2 -3.384017229080200 0.213104620575905 9.464886665344238 
459 2 5.914348125457764 4.928926944732666 9.561708450317383 
460 2 -1.916500926017761 -5.634555339813232 7.551539421081543 
461 2 6.851749420166016 8.364937782287598 -10.371137619018555 
462 2 11.362724304199219 5.760675430297852 8.094786643981934 
463 2 -1.186743140220642 6.349225044250488 4.105965614318848 
464 2 0.544128298759460 -1.407599329948425 6.521034717559814 
465 2 5.524951457977295 2.074429273605347 -2.571200132369995 
466 2 9.723721504211426 -4.641181945800781 6.356971263885498 
467 2 -4.868403434753418 4.360817432403564 10.813014984130859 
468 2 9.528527259826660 -10.661525726318359 -10.717295646667480 
469 2 -8.787379264831543 -9.241219520568848 4.908285140991211 
470 2 -8.868868827819824 -8.949195861816406 0.124429203569889 
471 2 2.465193986892700 -7.171559810638428 5.243272781372070 
472 2 0.420481801033020 0.466848254203796 -10.255634307861328 
473 2 6.766790390014648 -7.349878311157227 -5.185108661651611 
474 2 -2.601916790008545 -7.581926345825195 -9.625248908996582 
475 2 -0.921658158302307 9.863498687744141 -0.841793358325958 