LAMMPS (7 Dec 2015)
Reading data file ...
  triclinic box = (0 0 0) to (23.3007 23.3007 23.3007) with tilt (0 0 0)
  2 by 2 by 3 MPI processor grid
  reading atoms ...
  1008 atoms
Bisection: Getting new map
Scanning dump file ...
Reading snapshot from dump file ...
  triclinic box = (0 0 0) to (23.3007 23.3007 23.3007) with tilt (0 0 0)
  1008 atoms before read
  1008 atoms in snapshot
  0 atoms purged
  1008 atoms replaced
  0 atoms trimmed
  0 atoms added
  1008 atoms after read
Scanning dump file ...
Reading snapshot from dump file ...
  triclinic box = (0 0 0) to (23.3007 23.3007 23.3007) with tilt (0 0 0)
  1008 atoms before read
  1008 atoms in snapshot
  0 atoms purged
  1008 atoms replaced
  0 atoms trimmed
  0 atoms added
  1008 atoms after read
CR_UPDATE- 23.300680	23.300680	23.300680	0.000000	0.000000	0.000000
For k = 0, applying strain of 0.995
Changing box ...
  triclinic box = (0.0582517 0 0) to (23.2424 23.3007 23.3007) with tilt (0 0 0)
WARNING: Resetting reneighboring criteria during minimization (../min.cpp:168)
Ewald initialization ...
  G vector (1/distance) = 0.365089
  estimated absolute RMS force accuracy = 1.92191e-05
  estimated relative force accuracy = 1.33469e-06
  KSpace vectors: actual max1d max3d = 2088 10 4630
                  kxmax kymax kzmax  = 10 10 10
Neighbor list info ...
  2 neighbor list requests
  update every 1 steps, delay 0 steps, check yes
  max neighbors/atom: 2000, page size: 100000
  master list distance cutoff = 11
  ghost atom cutoff = 11
Setting up cg style minimization ...
  Unit style: metal
Memory usage per processor = 4.56156 Mbytes
Step Temp E_pair E_mol TotEng Press 
       0           10   -18273.969            0   -18272.668    3485.1113 
      22           10   -18274.123            0   -18272.821   -292.44038 
Loop time of 27.9981 on 12 procs for 22 steps with 1008 atoms

91.6% CPU use with 12 MPI tasks x no OpenMP threads

Minimization stats:
  Stopping criterion = linesearch alpha is zero
  Energy initial, next-to-last, final = 
        -18273.9694078     -18274.1230754     -18274.1230754
  Force two-norm initial, final = 1.8194 0.13226
  Force max component initial, final = 0.172867 0.0113715
  Final line search alpha, max atom move = 4.76837e-07 5.42234e-09
  Iterations, force evaluations = 22 137

MPI task timing breakdown:
Section |  min time  |  avg time  |  max time  |%varavg| %total
---------------------------------------------------------------
Pair    | 0.15401    | 0.1629     | 0.17846    |   1.7 |  0.58
Kspace  | 11.453     | 13.521     | 15.299     |  29.8 | 48.29
Neigh   | 0          | 0          | 0          |   0.0 |  0.00
Comm    | 6.5618     | 8.2246     | 10.351     |  39.8 | 29.38
Output  | 0          | 0          | 0          |   0.0 |  0.00
Modify  | 0          | 0          | 0          |   0.0 |  0.00
Other   |            | 6.09       |            |       | 21.75

Nlocal:    84 ave 87 max 79 min
Histogram: 1 0 0 0 0 2 4 4 0 1
Nghost:    2611.67 ave 2638 max 2591 min
Histogram: 3 2 1 0 0 0 3 0 1 2
Neighs:    18720.2 ave 19437 max 17452 min
Histogram: 1 0 0 0 0 1 6 3 0 1

Total # of neighbors = 224643
Ave neighs/atom = 222.86
Neighbor list builds = 0
Dangerous builds = 0
CR_UPDATE- 23.300680	23.300680	23.300680	0.000000	0.000000	0.000000
For k = 1, applying strain of 0.996667
Changing box ...
  triclinic box = (0.0388306 0 0) to (23.2618 23.3007 23.3007) with tilt (0 0 0)
WARNING: Resetting reneighboring criteria during minimization (../min.cpp:168)
Ewald initialization ...
  G vector (1/distance) = 0.365078
  estimated absolute RMS force accuracy = 1.92793e-05
  estimated relative force accuracy = 1.33888e-06
  KSpace vectors: actual max1d max3d = 2084 10 4630
                  kxmax kymax kzmax  = 10 10 10
Setting up cg style minimization ...
  Unit style: metal
Memory usage per processor = 4.56156 Mbytes
Step Temp E_pair E_mol TotEng Press 
      22           10   -18274.086            0   -18272.784    -116.0541 
      38           10   -18274.154            0   -18272.852   -2506.9641 
Loop time of 10.529 on 12 procs for 16 steps with 1008 atoms

91.6% CPU use with 12 MPI tasks x no OpenMP threads

Minimization stats:
  Stopping criterion = linesearch alpha is zero
  Energy initial, next-to-last, final = 
        -18274.0857959     -18274.1537909     -18274.1537909
  Force two-norm initial, final = 1.20542 0.134865
  Force max component initial, final = 0.114149 0.0136814
  Final line search alpha, max atom move = 4.76837e-07 6.52382e-09
  Iterations, force evaluations = 16 73

MPI task timing breakdown:
Section |  min time  |  avg time  |  max time  |%varavg| %total
---------------------------------------------------------------
Pair    | 0.081754   | 0.087709   | 0.094846   |   1.2 |  0.83
Kspace  | 4.0663     | 5.6857     | 6.4995     |  34.0 | 54.00
Neigh   | 0          | 0          | 0          |   0.0 |  0.00
Comm    | 0.82467    | 2.026      | 3.2474     |  58.6 | 19.24
Output  | 0          | 0          | 0          |   0.0 |  0.00
Modify  | 0          | 0          | 0          |   0.0 |  0.00
Other   |            | 2.73       |            |       | 25.92

Nlocal:    84 ave 87 max 79 min
Histogram: 1 0 0 0 0 2 4 4 0 1
Nghost:    2608.17 ave 2635 max 2589 min
Histogram: 3 3 0 0 0 3 0 0 1 2
Neighs:    18687.8 ave 19408 max 17420 min
Histogram: 1 0 0 0 0 1 6 3 0 1

Total # of neighbors = 224254
Ave neighs/atom = 222.474
Neighbor list builds = 0
Dangerous builds = 0
CR_UPDATE- 23.300680	23.300680	23.300680	0.000000	0.000000	0.000000
For k = 2, applying strain of 0.998333
Changing box ...
  triclinic box = (0.0194211 0 0) to (23.2813 23.3007 23.3007) with tilt (0 0 0)
WARNING: Resetting reneighboring criteria during minimization (../min.cpp:168)
Ewald initialization ...
  G vector (1/distance) = 0.365066
  estimated absolute RMS force accuracy = 1.9345e-05
  estimated relative force accuracy = 1.34344e-06
  KSpace vectors: actual max1d max3d = 2084 10 4630
                  kxmax kymax kzmax  = 10 10 10
Setting up cg style minimization ...
  Unit style: metal
Memory usage per processor = 4.56156 Mbytes
Step Temp E_pair E_mol TotEng Press 
      38           10    -18274.12            0   -18272.818   -3677.8431 
      49           10   -18274.138            0   -18272.836    -4782.302 
Loop time of 10.3218 on 12 procs for 11 steps with 1008 atoms

91.6% CPU use with 12 MPI tasks x no OpenMP threads

Minimization stats:
  Stopping criterion = linesearch alpha is zero
  Energy initial, next-to-last, final = 
        -18274.1197648     -18274.1375554     -18274.1375554
  Force two-norm initial, final = 0.59881 0.0994096
  Force max component initial, final = 0.0565205 0.0109229
  Final line search alpha, max atom move = 9.53674e-07 1.04169e-08
  Iterations, force evaluations = 11 61

MPI task timing breakdown:
Section |  min time  |  avg time  |  max time  |%varavg| %total
---------------------------------------------------------------
Pair    | 0.067385   | 0.072461   | 0.078544   |   1.1 |  0.70
Kspace  | 4.7088     | 4.8636     | 5.4314     |  11.1 | 47.12
Neigh   | 0          | 0          | 0          |   0.0 |  0.00
Comm    | 2.2977     | 2.5638     | 2.6836     |   9.1 | 24.84
Output  | 0          | 0          | 0          |   0.0 |  0.00
Modify  | 0          | 0          | 0          |   0.0 |  0.00
Other   |            | 2.822      |            |       | 27.34

Nlocal:    84 ave 87 max 79 min
Histogram: 1 0 0 0 0 2 4 4 0 1
Nghost:    2604.5 ave 2632 max 2586 min
Histogram: 4 2 0 0 0 2 1 0 1 2
Neighs:    18657.8 ave 19369 max 17391 min
Histogram: 1 0 0 0 0 1 6 3 0 1

Total # of neighbors = 223893
Ave neighs/atom = 222.116
Neighbor list builds = 0
Dangerous builds = 0
CR_UPDATE- 23.300680	23.300680	23.300680	0.000000	0.000000	0.000000
For k = 3, applying strain of 1
Changing box ...
  triclinic box = (0 0 0) to (23.3007 23.3007 23.3007) with tilt (0 0 0)
WARNING: Resetting reneighboring criteria during minimization (../min.cpp:168)
Ewald initialization ...
  G vector (1/distance) = 0.365055
  estimated absolute RMS force accuracy = 1.94166e-05
  estimated relative force accuracy = 1.34841e-06
  KSpace vectors: actual max1d max3d = 2084 10 4630
                  kxmax kymax kzmax  = 10 10 10
Setting up cg style minimization ...
  Unit style: metal
Memory usage per processor = 4.56156 Mbytes
Step Temp E_pair E_mol TotEng Press 
      49           10   -18274.068            0   -18272.767   -7203.7615 
      50           10   -18274.068            0   -18272.767   -7201.4197 
      51           10   -18274.068            0   -18272.767   -7201.4197 
Loop time of 5.59501 on 12 procs for 2 steps with 1008 atoms

91.6% CPU use with 12 MPI tasks x no OpenMP threads

Minimization stats:
  Stopping criterion = linesearch alpha is zero
  Energy initial, next-to-last, final = 
        -18274.0683273      -18274.068328      -18274.068328
  Force two-norm initial, final = 0.00481275 0.00321271
  Force max component initial, final = 0.000368488 0.000304698
  Final line search alpha, max atom move = 0.000976562 2.97556e-07
  Iterations, force evaluations = 2 33

MPI task timing breakdown:
Section |  min time  |  avg time  |  max time  |%varavg| %total
---------------------------------------------------------------
Pair    | 0.037041   | 0.039601   | 0.043583   |   0.9 |  0.71
Kspace  | 2.5783     | 2.664      | 2.9744     |   8.6 | 47.61
Neigh   | 0          | 0          | 0          |   0.0 |  0.00
Comm    | 1.2979     | 1.4241     | 1.5166     |   6.4 | 25.45
Output  | 0.04401    | 0.055002   | 0.066002   |   3.3 |  0.98
Modify  | 0          | 0          | 0          |   0.0 |  0.00
Other   |            | 1.412      |            |       | 25.24

Nlocal:    84 ave 87 max 79 min
Histogram: 1 0 0 0 0 2 4 4 0 1
Nghost:    2602.5 ave 2628 max 2586 min
Histogram: 4 1 1 0 1 1 2 0 0 2
Neighs:    18627.8 ave 19341 max 17364 min
Histogram: 1 0 0 0 0 1 6 3 0 1

Total # of neighbors = 223533
Ave neighs/atom = 221.759
Neighbor list builds = 0
Dangerous builds = 0
CR_UPDATE- 23.300680	23.300680	23.300680	0.000000	0.000000	0.000000
For k = 4, applying strain of 1.00167
Changing box ...
  triclinic box = (-0.0194211 0 0) to (23.3201 23.3007 23.3007) with tilt (0 0 0)
WARNING: Resetting reneighboring criteria during minimization (../min.cpp:168)
Ewald initialization ...
  G vector (1/distance) = 0.365044
  estimated absolute RMS force accuracy = 1.94944e-05
  estimated relative force accuracy = 1.35381e-06
  KSpace vectors: actual max1d max3d = 2084 10 4630
                  kxmax kymax kzmax  = 10 10 10
Setting up cg style minimization ...
  Unit style: metal
Memory usage per processor = 4.56156 Mbytes
Step Temp E_pair E_mol TotEng Press 
      51           10   -18273.937            0   -18272.635   -10693.267 
      66           10   -18273.953            0   -18272.651   -9525.5998 
Loop time of 11.1023 on 12 procs for 15 steps with 1008 atoms

91.6% CPU use with 12 MPI tasks x no OpenMP threads

Minimization stats:
  Stopping criterion = linesearch alpha is zero
  Energy initial, next-to-last, final = 
        -18273.9370878     -18273.9530675     -18273.9530675
  Force two-norm initial, final = 0.594867 0.0685401
  Force max component initial, final = 0.0556927 0.00809367
  Final line search alpha, max atom move = 1.90735e-06 1.54375e-08
  Iterations, force evaluations = 15 67

MPI task timing breakdown:
Section |  min time  |  avg time  |  max time  |%varavg| %total
---------------------------------------------------------------
Pair    | 0.074312   | 0.078906   | 0.087235   |   1.3 |  0.71
Kspace  | 5.0398     | 5.1667     | 5.764      |  11.6 | 46.54
Neigh   | 0          | 0          | 0          |   0.0 |  0.00
Comm    | 2.5133     | 2.7505     | 2.8932     |   9.9 | 24.77
Output  | 0          | 0          | 0          |   0.0 |  0.00
Modify  | 0          | 0          | 0          |   0.0 |  0.00
Other   |            | 3.106      |            |       | 27.98

Nlocal:    84 ave 87 max 79 min
Histogram: 1 0 0 0 0 2 4 4 0 1
Nghost:    2601.5 ave 2628 max 2585 min
Histogram: 5 1 0 0 1 0 3 0 0 2
Neighs:    18596.8 ave 19310 max 17334 min
Histogram: 1 0 0 0 0 1 6 3 0 1

Total # of neighbors = 223162
Ave neighs/atom = 221.391
Neighbor list builds = 0
Dangerous builds = 0
CR_UPDATE- 23.300680	23.300680	23.300680	0.000000	0.000000	0.000000
For k = 5, applying strain of 1.00333
Changing box ...
  triclinic box = (-0.0388306 0 0) to (23.3395 23.3007 23.3007) with tilt (0 0 0)
WARNING: Resetting reneighboring criteria during minimization (../min.cpp:168)
Ewald initialization ...
  G vector (1/distance) = 0.365032
  estimated absolute RMS force accuracy = 1.95788e-05
  estimated relative force accuracy = 1.35968e-06
  KSpace vectors: actual max1d max3d = 2084 10 4630
                  kxmax kymax kzmax  = 10 10 10
Setting up cg style minimization ...
  Unit style: metal
Memory usage per processor = 4.56156 Mbytes
Step Temp E_pair E_mol TotEng Press 
      66           10   -18273.724            0   -18272.422   -14143.885 
      80           10   -18273.787            0   -18272.485   -11870.579 
Loop time of 0.344673 on 12 procs for 14 steps with 1008 atoms

100.0% CPU use with 12 MPI tasks x no OpenMP threads

Minimization stats:
  Stopping criterion = linesearch alpha is zero
  Energy initial, next-to-last, final = 
        -18273.7240194      -18273.786728      -18273.786728
  Force two-norm initial, final = 1.18135 0.1484
  Force max component initial, final = 0.110245 0.0211154
  Final line search alpha, max atom move = 4.76837e-07 1.00686e-08
  Iterations, force evaluations = 14 111

MPI task timing breakdown:
Section |  min time  |  avg time  |  max time  |%varavg| %total
---------------------------------------------------------------
Pair    | 0.1166     | 0.12597    | 0.13901    |   1.8 | 36.55
Kspace  | 0.1891     | 0.19551    | 0.20088    |   0.7 | 56.72
Neigh   | 0          | 0          | 0          |   0.0 |  0.00
Comm    | 0.011368   | 0.021535   | 0.027084   |   3.2 |  6.25
Output  | 0          | 0          | 0          |   0.0 |  0.00
Modify  | 0          | 0          | 0          |   0.0 |  0.00
Other   |            | 0.001659   |            |       |  0.48

Nlocal:    84 ave 87 max 79 min
Histogram: 1 0 0 0 0 2 4 4 0 1
Nghost:    2600.75 ave 2626 max 2585 min
Histogram: 5 1 0 0 1 0 3 0 0 2
Neighs:    18569.4 ave 19285 max 17311 min
Histogram: 1 0 0 0 0 1 6 3 0 1

Total # of neighbors = 222833
Ave neighs/atom = 221.064
Neighbor list builds = 0
Dangerous builds = 0
CR_UPDATE- 23.300680	23.300680	23.300680	0.000000	0.000000	0.000000
For k = 6, applying strain of 1.005
Changing box ...
  triclinic box = (-0.0582517 0 0) to (23.3589 23.3007 23.3007) with tilt (0 0 0)
WARNING: Resetting reneighboring criteria during minimization (../min.cpp:168)
Ewald initialization ...
  G vector (1/distance) = 0.365021
  estimated absolute RMS force accuracy = 1.96704e-05
  estimated relative force accuracy = 1.36604e-06
  KSpace vectors: actual max1d max3d = 2084 10 4630
                  kxmax kymax kzmax  = 10 10 10
Setting up cg style minimization ...
  Unit style: metal
Memory usage per processor = 4.56156 Mbytes
Step Temp E_pair E_mol TotEng Press 
      80           10   -18273.429            0   -18272.127   -17560.029 
     100           10   -18273.571            0    -18272.27   -14041.112 
Loop time of 0.252102 on 12 procs for 20 steps with 1008 atoms

100.0% CPU use with 12 MPI tasks x no OpenMP threads

Minimization stats:
  Stopping criterion = linesearch alpha is zero
  Energy initial, next-to-last, final = 
        -18273.4291048     -18273.5712166     -18273.5712166
  Force two-norm initial, final = 1.76171 0.125423
  Force max component initial, final = 0.163831 0.0158233
  Final line search alpha, max atom move = 4.76837e-07 7.54512e-09
  Iterations, force evaluations = 20 81

MPI task timing breakdown:
Section |  min time  |  avg time  |  max time  |%varavg| %total
---------------------------------------------------------------
Pair    | 0.085421   | 0.091718   | 0.10205    |   1.5 | 36.38
Kspace  | 0.14043    | 0.14352    | 0.1465     |   0.5 | 56.93
Neigh   | 0          | 0          | 0          |   0.0 |  0.00
Comm    | 0.0078723  | 0.015605   | 0.019655   |   2.8 |  6.19
Output  | 0          | 0          | 0          |   0.0 |  0.00
Modify  | 0          | 0          | 0          |   0.0 |  0.00
Other   |            | 0.001257   |            |       |  0.50

Nlocal:    84 ave 87 max 79 min
Histogram: 1 0 0 0 0 2 4 4 0 1
Nghost:    2600 ave 2624 max 2585 min
Histogram: 4 1 1 0 1 0 3 0 1 1
Neighs:    18540.1 ave 19252 max 17287 min
Histogram: 1 0 0 0 0 1 6 3 0 1

Total # of neighbors = 222481
Ave neighs/atom = 220.715
Neighbor list builds = 0
Dangerous builds = 0
CR_UPDATE- 23.300680	23.300680	23.300680	0.000000	0.000000	0.000000
For k = 0, applying strain of 0.995
Changing box ...
  triclinic box = (0 0.0582517 0) to (23.3007 23.2424 23.3007) with tilt (0 0 0)
WARNING: Resetting reneighboring criteria during minimization (../min.cpp:168)
Ewald initialization ...
  G vector (1/distance) = 0.365089
  estimated absolute RMS force accuracy = 1.92191e-05
  estimated relative force accuracy = 1.33469e-06
  KSpace vectors: actual max1d max3d = 2088 10 4630
                  kxmax kymax kzmax  = 10 10 10
Setting up cg style minimization ...
  Unit style: metal
Memory usage per processor = 4.56156 Mbytes
Step Temp E_pair E_mol TotEng Press 
     100           10   -18274.139            0   -18272.837    3460.5596 
     123           10   -18274.293            0   -18272.992   -209.36248 
Loop time of 0.271847 on 12 procs for 23 steps with 1008 atoms

100.0% CPU use with 12 MPI tasks x no OpenMP threads

Minimization stats:
  Stopping criterion = linesearch alpha is zero
  Energy initial, next-to-last, final = 
         -18274.138735     -18274.2933097     -18274.2933097
  Force two-norm initial, final = 1.77347 0.115004
  Force max component initial, final = 0.16496 0.00832865
  Final line search alpha, max atom move = 4.76837e-07 3.97141e-09
  Iterations, force evaluations = 23 87

MPI task timing breakdown:
Section |  min time  |  avg time  |  max time  |%varavg| %total
---------------------------------------------------------------
Pair    | 0.092254   | 0.099034   | 0.11029    |   1.7 | 36.43
Kspace  | 0.14954    | 0.15383    | 0.15777    |   0.6 | 56.59
Neigh   | 0          | 0          | 0          |   0.0 |  0.00
Comm    | 0.0086644  | 0.017546   | 0.022138   |   3.1 |  6.45
Output  | 0          | 0          | 0          |   0.0 |  0.00
Modify  | 0          | 0          | 0          |   0.0 |  0.00
Other   |            | 0.001435   |            |       |  0.53

Nlocal:    84 ave 87 max 79 min
Histogram: 1 0 0 0 0 2 4 4 0 1
Nghost:    2612.92 ave 2642 max 2591 min
Histogram: 3 2 0 1 1 1 1 1 0 2
Neighs:    18721.6 ave 19431 max 17458 min
Histogram: 1 0 0 0 0 1 6 3 0 1

Total # of neighbors = 224659
Ave neighs/atom = 222.876
Neighbor list builds = 0
Dangerous builds = 0
CR_UPDATE- 23.300680	23.300680	23.300680	0.000000	0.000000	0.000000
For k = 1, applying strain of 0.996667
Changing box ...
  triclinic box = (0 0.0388306 0) to (23.3007 23.2618 23.3007) with tilt (0 0 0)
WARNING: Resetting reneighboring criteria during minimization (../min.cpp:168)
Ewald initialization ...
  G vector (1/distance) = 0.365078
  estimated absolute RMS force accuracy = 1.92793e-05
  estimated relative force accuracy = 1.33888e-06
  KSpace vectors: actual max1d max3d = 2084 10 4630
                  kxmax kymax kzmax  = 10 10 10
Setting up cg style minimization ...
  Unit style: metal
Memory usage per processor = 4.56156 Mbytes
Step Temp E_pair E_mol TotEng Press 
     123           10   -18274.203            0   -18272.901   -133.74878 
     136           10   -18274.268            0   -18272.966   -2407.2483 
Loop time of 0.20948 on 12 procs for 13 steps with 1008 atoms

100.1% CPU use with 12 MPI tasks x no OpenMP threads

Minimization stats:
  Stopping criterion = linesearch alpha is zero
  Energy initial, next-to-last, final = 
        -18274.2031003     -18274.2676432     -18274.2676432
  Force two-norm initial, final = 1.17515 0.161701
  Force max component initial, final = 0.108975 0.0217342
  Final line search alpha, max atom move = 4.76837e-07 1.03637e-08
  Iterations, force evaluations = 13 67

MPI task timing breakdown:
Section |  min time  |  avg time  |  max time  |%varavg| %total
---------------------------------------------------------------
Pair    | 0.071907   | 0.077372   | 0.084635   |   1.2 | 36.94
Kspace  | 0.11523    | 0.11863    | 0.12116    |   0.6 | 56.63
Neigh   | 0          | 0          | 0          |   0.0 |  0.00
Comm    | 0.0069149  | 0.012401   | 0.015584   |   2.2 |  5.92
Output  | 0          | 0          | 0          |   0.0 |  0.00
Modify  | 0          | 0          | 0          |   0.0 |  0.00
Other   |            | 0.001076   |            |       |  0.51

Nlocal:    84 ave 87 max 79 min
Histogram: 1 0 0 0 0 2 4 4 0 1
Nghost:    2610.17 ave 2640 max 2589 min
Histogram: 3 1 1 1 1 2 0 1 0 2
Neighs:    18692 ave 19398 max 17427 min
Histogram: 1 0 0 0 0 1 6 3 0 1

Total # of neighbors = 224304
Ave neighs/atom = 222.524
Neighbor list builds = 0
Dangerous builds = 0
CR_UPDATE- 23.300680	23.300680	23.300680	0.000000	0.000000	0.000000
For k = 2, applying strain of 0.998333
Changing box ...
  triclinic box = (0 0.0194211 0) to (23.3007 23.2813 23.3007) with tilt (0 0 0)
WARNING: Resetting reneighboring criteria during minimization (../min.cpp:168)
Ewald initialization ...
  G vector (1/distance) = 0.365066
  estimated absolute RMS force accuracy = 1.9345e-05
  estimated relative force accuracy = 1.34344e-06
  KSpace vectors: actual max1d max3d = 2084 10 4630
                  kxmax kymax kzmax  = 10 10 10
Setting up cg style minimization ...
  Unit style: metal
Memory usage per processor = 4.56156 Mbytes
Step Temp E_pair E_mol TotEng Press 
     136           10   -18274.177            0   -18272.876   -3686.4645 
     150           10   -18274.196            0   -18272.895   -4834.5234 
     153           10   -18274.197            0   -18272.895   -4851.6161 
Loop time of 0.227343 on 12 procs for 17 steps with 1008 atoms

99.7% CPU use with 12 MPI tasks x no OpenMP threads

Minimization stats:
  Stopping criterion = linesearch alpha is zero
  Energy initial, next-to-last, final = 
        -18274.1773981      -18274.196577      -18274.196577
  Force two-norm initial, final = 0.583791 0.0591259
  Force max component initial, final = 0.0540019 0.00550549
  Final line search alpha, max atom move = 1.90735e-06 1.05009e-08
  Iterations, force evaluations = 17 73

MPI task timing breakdown:
Section |  min time  |  avg time  |  max time  |%varavg| %total
---------------------------------------------------------------
Pair    | 0.077838   | 0.083204   | 0.092532   |   1.4 | 36.60
Kspace  | 0.12473    | 0.12908    | 0.13196    |   0.6 | 56.78
Neigh   | 0          | 0          | 0          |   0.0 |  0.00
Comm    | 0.007014   | 0.013924   | 0.017584   |   2.7 |  6.12
Output  | 2.408e-05  | 2.4895e-05 | 3.1948e-05 |   0.0 |  0.01
Modify  | 0          | 0          | 0          |   0.0 |  0.00
Other   |            | 0.001106   |            |       |  0.49

Nlocal:    84 ave 87 max 79 min
Histogram: 1 0 0 0 0 2 4 4 0 1
Nghost:    2606 ave 2631 max 2589 min
Histogram: 5 0 1 0 1 0 2 1 0 2
Neighs:    18658.2 ave 19374 max 17394 min
Histogram: 1 0 0 0 0 1 6 3 0 1

Total # of neighbors = 223898
Ave neighs/atom = 222.121
Neighbor list builds = 0
Dangerous builds = 0
CR_UPDATE- 23.300680	23.300680	23.300680	0.000000	0.000000	0.000000
For k = 3, applying strain of 1
Changing box ...
  triclinic box = (0 0 0) to (23.3007 23.3007 23.3007) with tilt (0 0 0)
WARNING: Resetting reneighboring criteria during minimization (../min.cpp:168)
Ewald initialization ...
  G vector (1/distance) = 0.365055
  estimated absolute RMS force accuracy = 1.94166e-05
  estimated relative force accuracy = 1.34841e-06
  KSpace vectors: actual max1d max3d = 2084 10 4630
                  kxmax kymax kzmax  = 10 10 10
Setting up cg style minimization ...
  Unit style: metal
Memory usage per processor = 4.56156 Mbytes
Step Temp E_pair E_mol TotEng Press 
     153           10   -18274.068            0   -18272.767   -7203.7615 
     155           10   -18274.068            0   -18272.767   -7201.4197 
Loop time of 0.104712 on 12 procs for 2 steps with 1008 atoms

99.2% CPU use with 12 MPI tasks x no OpenMP threads

Minimization stats:
  Stopping criterion = linesearch alpha is zero
  Energy initial, next-to-last, final = 
        -18274.0683273      -18274.068328      -18274.068328
  Force two-norm initial, final = 0.00481275 0.00321271
  Force max component initial, final = 0.000368488 0.000304698
  Final line search alpha, max atom move = 0.000976562 2.97556e-07
  Iterations, force evaluations = 2 33

MPI task timing breakdown:
Section |  min time  |  avg time  |  max time  |%varavg| %total
---------------------------------------------------------------
Pair    | 0.035489   | 0.038173   | 0.042828   |   1.1 | 36.46
Kspace  | 0.058246   | 0.059526   | 0.061133   |   0.4 | 56.85
Neigh   | 0          | 0          | 0          |   0.0 |  0.00
Comm    | 0.0031986  | 0.0065593  | 0.0082765  |   1.9 |  6.26
Output  | 0          | 0          | 0          |   0.0 |  0.00
Modify  | 0          | 0          | 0          |   0.0 |  0.00
Other   |            | 0.0004539  |            |       |  0.43

Nlocal:    84 ave 87 max 79 min
Histogram: 1 0 0 0 0 2 4 4 0 1
Nghost:    2602.5 ave 2628 max 2586 min
Histogram: 4 1 1 0 1 1 2 0 0 2
Neighs:    18627.8 ave 19341 max 17364 min
Histogram: 1 0 0 0 0 1 6 3 0 1

Total # of neighbors = 223533
Ave neighs/atom = 221.759
Neighbor list builds = 0
Dangerous builds = 0
CR_UPDATE- 23.300680	23.300680	23.300680	0.000000	0.000000	0.000000
For k = 4, applying strain of 1.00167
Changing box ...
  triclinic box = (0 -0.0194211 0) to (23.3007 23.3201 23.3007) with tilt (0 0 0)
WARNING: Resetting reneighboring criteria during minimization (../min.cpp:168)
Ewald initialization ...
  G vector (1/distance) = 0.365044
  estimated absolute RMS force accuracy = 1.94944e-05
  estimated relative force accuracy = 1.35381e-06
  KSpace vectors: actual max1d max3d = 2084 10 4630
                  kxmax kymax kzmax  = 10 10 10
Setting up cg style minimization ...
  Unit style: metal
Memory usage per processor = 4.56156 Mbytes
Step Temp E_pair E_mol TotEng Press 
     155           10   -18273.876            0   -18272.574   -10683.469 
     165           10   -18273.892            0    -18272.59   -9594.7135 
Loop time of 0.184699 on 12 procs for 10 steps with 1008 atoms

99.9% CPU use with 12 MPI tasks x no OpenMP threads

Minimization stats:
  Stopping criterion = linesearch alpha is zero
  Energy initial, next-to-last, final = 
        -18273.8755809     -18273.8921031     -18273.8921031
  Force two-norm initial, final = 0.580386 0.11091
  Force max component initial, final = 0.0530352 0.0116315
  Final line search alpha, max atom move = 9.53674e-07 1.10927e-08
  Iterations, force evaluations = 10 59

MPI task timing breakdown:
Section |  min time  |  avg time  |  max time  |%varavg| %total
---------------------------------------------------------------
Pair    | 0.062227   | 0.067144   | 0.074997   |   1.4 | 36.35
Kspace  | 0.10218    | 0.10495    | 0.10694    |   0.5 | 56.82
Neigh   | 0          | 0          | 0          |   0.0 |  0.00
Comm    | 0.0059009  | 0.011703   | 0.014775   |   2.5 |  6.34
Output  | 0          | 0          | 0          |   0.0 |  0.00
Modify  | 0          | 0          | 0          |   0.0 |  0.00
Other   |            | 0.0009044  |            |       |  0.49

Nlocal:    84 ave 87 max 79 min
Histogram: 1 0 0 0 0 2 4 4 0 1
Nghost:    2595.17 ave 2619 max 2577 min
Histogram: 3 1 2 0 1 1 1 1 0 2
Neighs:    18596.4 ave 19310 max 17333 min
Histogram: 1 0 0 0 0 1 6 3 0 1

Total # of neighbors = 223157
Ave neighs/atom = 221.386
Neighbor list builds = 0
Dangerous builds = 0
CR_UPDATE- 23.300680	23.300680	23.300680	0.000000	0.000000	0.000000
For k = 5, applying strain of 1.00333
Changing box ...
  triclinic box = (0 -0.0388306 0) to (23.3007 23.3395 23.3007) with tilt (0 0 0)
WARNING: Resetting reneighboring criteria during minimization (../min.cpp:168)
Ewald initialization ...
  G vector (1/distance) = 0.365032
  estimated absolute RMS force accuracy = 1.95788e-05
  estimated relative force accuracy = 1.35968e-06
  KSpace vectors: actual max1d max3d = 2084 10 4630
                  kxmax kymax kzmax  = 10 10 10
Setting up cg style minimization ...
  Unit style: metal
Memory usage per processor = 4.56156 Mbytes
Step Temp E_pair E_mol TotEng Press 
     165           10   -18273.601            0   -18272.299   -14124.137 
     178           10   -18273.663            0   -18272.361   -11880.089 
Loop time of 0.208444 on 12 procs for 13 steps with 1008 atoms

99.7% CPU use with 12 MPI tasks x no OpenMP threads

Minimization stats:
  Stopping criterion = linesearch alpha is zero
  Energy initial, next-to-last, final = 
        -18273.6010384      -18273.662549      -18273.662549
  Force two-norm initial, final = 1.15278 0.156736
  Force max component initial, final = 0.105098 0.0134624
  Final line search alpha, max atom move = 4.76837e-07 6.41937e-09
  Iterations, force evaluations = 13 67

MPI task timing breakdown:
Section |  min time  |  avg time  |  max time  |%varavg| %total
---------------------------------------------------------------
Pair    | 0.07109    | 0.0762     | 0.084281   |   1.3 | 36.56
Kspace  | 0.11607    | 0.11917    | 0.12155    |   0.6 | 57.17
Neigh   | 0          | 0          | 0          |   0.0 |  0.00
Comm    | 0.0066154  | 0.012088   | 0.015133   |   2.3 |  5.80
Output  | 0          | 0          | 0          |   0.0 |  0.00
Modify  | 0          | 0          | 0          |   0.0 |  0.00
Other   |            | 0.0009858  |            |       |  0.47

Nlocal:    84 ave 87 max 79 min
Histogram: 1 0 0 0 0 2 4 4 0 1
Nghost:    2590.5 ave 2616 max 2567 min
Histogram: 1 2 2 1 0 1 1 2 1 1
Neighs:    18563.8 ave 19272 max 17302 min
Histogram: 1 0 0 0 0 1 6 3 0 1

Total # of neighbors = 222766
Ave neighs/atom = 220.998
Neighbor list builds = 0
Dangerous builds = 0
CR_UPDATE- 23.300680	23.300680	23.300680	0.000000	0.000000	0.000000
For k = 6, applying strain of 1.005
Changing box ...
  triclinic box = (0 -0.0582517 0) to (23.3007 23.3589 23.3007) with tilt (0 0 0)
WARNING: Resetting reneighboring criteria during minimization (../min.cpp:168)
Ewald initialization ...
  G vector (1/distance) = 0.365021
  estimated absolute RMS force accuracy = 1.96704e-05
  estimated relative force accuracy = 1.36604e-06
  KSpace vectors: actual max1d max3d = 2084 10 4630
                  kxmax kymax kzmax  = 10 10 10
Setting up cg style minimization ...
  Unit style: metal
Memory usage per processor = 4.56156 Mbytes
Step Temp E_pair E_mol TotEng Press 
     178           10   -18273.242            0    -18271.94   -17529.524 
     200           10   -18273.385            0   -18272.084   -13971.705 
     201           10   -18273.385            0   -18272.084   -13971.705 
Loop time of 0.2704 on 12 procs for 23 steps with 1008 atoms

99.8% CPU use with 12 MPI tasks x no OpenMP threads

Minimization stats:
  Stopping criterion = linesearch alpha is zero
  Energy initial, next-to-last, final = 
        -18273.2419308     -18273.3853668     -18273.3853668
  Force two-norm initial, final = 1.71934 0.113733
  Force max component initial, final = 0.156313 0.00853928
  Final line search alpha, max atom move = 9.53674e-07 8.14369e-09
  Iterations, force evaluations = 23 87

MPI task timing breakdown:
Section |  min time  |  avg time  |  max time  |%varavg| %total
---------------------------------------------------------------
Pair    | 0.091463   | 0.097633   | 0.10993    |   1.6 | 36.11
Kspace  | 0.15074    | 0.15461    | 0.15785    |   0.6 | 57.18
Neigh   | 0          | 0          | 0          |   0.0 |  0.00
Comm    | 0.0084274  | 0.016807   | 0.021228   |   3.0 |  6.22
Output  | 2.408e-05  | 2.5451e-05 | 3.1948e-05 |   0.0 |  0.01
Modify  | 0          | 0          | 0          |   0.0 |  0.00
Other   |            | 0.001324   |            |       |  0.49

Nlocal:    84 ave 87 max 79 min
Histogram: 1 0 0 0 0 2 4 4 0 1
Nghost:    2586 ave 2607 max 2557 min
Histogram: 1 0 1 2 1 1 0 3 1 2
Neighs:    18532.8 ave 19237 max 17272 min
Histogram: 1 0 0 0 0 1 6 3 0 1

Total # of neighbors = 222394
Ave neighs/atom = 220.629
Neighbor list builds = 0
Dangerous builds = 0
CR_UPDATE- 23.300680	23.300680	23.300680	0.000000	0.000000	0.000000
For k = 0, applying strain of 0.995
Changing box ...
  triclinic box = (0 0 0.0582517) to (23.3007 23.3007 23.2424) with tilt (0 0 0)
WARNING: Resetting reneighboring criteria during minimization (../min.cpp:168)
Ewald initialization ...
  G vector (1/distance) = 0.365089
  estimated absolute RMS force accuracy = 1.92191e-05
  estimated relative force accuracy = 1.33469e-06
  KSpace vectors: actual max1d max3d = 2088 10 4630
                  kxmax kymax kzmax  = 10 10 10
Setting up cg style minimization ...
  Unit style: metal
Memory usage per processor = 4.56156 Mbytes
Step Temp E_pair E_mol TotEng Press 
     201           10   -18274.105            0   -18272.803    3326.5806 
     218           10   -18274.253            0   -18272.952   -294.40259 
Loop time of 0.240216 on 12 procs for 17 steps with 1008 atoms

99.9% CPU use with 12 MPI tasks x no OpenMP threads

Minimization stats:
  Stopping criterion = linesearch alpha is zero
  Energy initial, next-to-last, final = 
        -18274.1045426     -18274.2532221     -18274.2532221
  Force two-norm initial, final = 1.88776 0.179568
  Force max component initial, final = 0.149755 0.01352
  Final line search alpha, max atom move = 2.38419e-07 3.22343e-09
  Iterations, force evaluations = 17 77

MPI task timing breakdown:
Section |  min time  |  avg time  |  max time  |%varavg| %total
---------------------------------------------------------------
Pair    | 0.081282   | 0.087436   | 0.097824   |   1.6 | 36.40
Kspace  | 0.13376    | 0.13654    | 0.13994    |   0.5 | 56.84
Neigh   | 0          | 0          | 0          |   0.0 |  0.00
Comm    | 0.0074286  | 0.015096   | 0.019099   |   2.9 |  6.28
Output  | 0          | 0          | 0          |   0.0 |  0.00
Modify  | 0          | 0          | 0          |   0.0 |  0.00
Other   |            | 0.001147   |            |       |  0.48

Nlocal:    84 ave 87 max 79 min
Histogram: 1 0 0 0 0 2 4 4 0 1
Nghost:    2615.75 ave 2642 max 2594 min
Histogram: 2 0 4 0 0 2 1 1 1 1
Neighs:    18717.8 ave 19445 max 17447 min
Histogram: 1 0 0 0 0 2 5 3 0 1

Total # of neighbors = 224614
Ave neighs/atom = 222.831
Neighbor list builds = 0
Dangerous builds = 0
CR_UPDATE- 23.300680	23.300680	23.300680	0.000000	0.000000	0.000000
For k = 1, applying strain of 0.996667
Changing box ...
  triclinic box = (0 0 0.0388306) to (23.3007 23.3007 23.2618) with tilt (0 0 0)
WARNING: Resetting reneighboring criteria during minimization (../min.cpp:168)
Ewald initialization ...
  G vector (1/distance) = 0.365078
  estimated absolute RMS force accuracy = 1.92793e-05
  estimated relative force accuracy = 1.33888e-06
  KSpace vectors: actual max1d max3d = 2084 10 4630
                  kxmax kymax kzmax  = 10 10 10
Setting up cg style minimization ...
  Unit style: metal
Memory usage per processor = 4.56156 Mbytes
Step Temp E_pair E_mol TotEng Press 
     218           10   -18274.178            0   -18272.877   -221.99738 
     230           10   -18274.242            0    -18272.94   -2506.5186 
Loop time of 0.209057 on 12 procs for 12 steps with 1008 atoms

99.9% CPU use with 12 MPI tasks x no OpenMP threads

Minimization stats:
  Stopping criterion = linesearch alpha is zero
  Energy initial, next-to-last, final = 
        -18274.1783654     -18274.2418496     -18274.2418496
  Force two-norm initial, final = 1.25086 0.179648
  Force max component initial, final = 0.0989151 0.0269991
  Final line search alpha, max atom move = 2.38419e-07 6.4371e-09
  Iterations, force evaluations = 12 67

MPI task timing breakdown:
Section |  min time  |  avg time  |  max time  |%varavg| %total
---------------------------------------------------------------
Pair    | 0.071843   | 0.07665    | 0.084509   |   1.3 | 36.66
Kspace  | 0.11576    | 0.11856    | 0.12106    |   0.5 | 56.71
Neigh   | 0          | 0          | 0          |   0.0 |  0.00
Comm    | 0.00669    | 0.01279    | 0.016068   |   2.5 |  6.12
Output  | 0          | 0          | 0          |   0.0 |  0.00
Modify  | 0          | 0          | 0          |   0.0 |  0.00
Other   |            | 0.001055   |            |       |  0.50

Nlocal:    84 ave 87 max 79 min
Histogram: 1 0 0 0 0 2 4 4 0 1
Nghost:    2611.75 ave 2641 max 2589 min
Histogram: 2 1 2 1 0 2 1 2 0 1
Neighs:    18688.9 ave 19402 max 17427 min
Histogram: 1 0 0 0 0 1 6 3 0 1

Total # of neighbors = 224267
Ave neighs/atom = 222.487
Neighbor list builds = 0
Dangerous builds = 0
CR_UPDATE- 23.300680	23.300680	23.300680	0.000000	0.000000	0.000000
For k = 2, applying strain of 0.998333
Changing box ...
  triclinic box = (0 0 0.0194211) to (23.3007 23.3007 23.2813) with tilt (0 0 0)
WARNING: Resetting reneighboring criteria during minimization (../min.cpp:168)
Ewald initialization ...
  G vector (1/distance) = 0.365066
  estimated absolute RMS force accuracy = 1.9345e-05
  estimated relative force accuracy = 1.34344e-06
  KSpace vectors: actual max1d max3d = 2084 10 4630
                  kxmax kymax kzmax  = 10 10 10
Setting up cg style minimization ...
  Unit style: metal
Memory usage per processor = 4.56156 Mbytes
Step Temp E_pair E_mol TotEng Press 
     230           10   -18274.165            0   -18272.863   -3730.2597 
     239           10   -18274.178            0   -18272.876   -4806.5396 
Loop time of 0.185161 on 12 procs for 9 steps with 1008 atoms

99.9% CPU use with 12 MPI tasks x no OpenMP threads

Minimization stats:
  Stopping criterion = linesearch alpha is zero
  Energy initial, next-to-last, final = 
        -18274.1646543     -18274.1777868     -18274.1777868
  Force two-norm initial, final = 0.621415 0.118412
  Force max component initial, final = 0.049006 0.014946
  Final line search alpha, max atom move = 4.76837e-07 7.12682e-09
  Iterations, force evaluations = 9 59

MPI task timing breakdown:
Section |  min time  |  avg time  |  max time  |%varavg| %total
---------------------------------------------------------------
Pair    | 0.064026   | 0.0682     | 0.075485   |   1.2 | 36.83
Kspace  | 0.10207    | 0.10492    | 0.10714    |   0.5 | 56.67
Neigh   | 0          | 0          | 0          |   0.0 |  0.00
Comm    | 0.0058897  | 0.011164   | 0.014039   |   2.3 |  6.03
Output  | 0          | 0          | 0          |   0.0 |  0.00
Modify  | 0          | 0          | 0          |   0.0 |  0.00
Other   |            | 0.0008738  |            |       |  0.47

Nlocal:    84 ave 87 max 79 min
Histogram: 1 0 0 0 0 2 4 4 0 1
Nghost:    2604.75 ave 2630 max 2588 min
Histogram: 5 0 1 0 1 1 2 0 0 2
Neighs:    18657.9 ave 19370 max 17397 min
Histogram: 1 0 0 0 0 1 6 3 0 1

Total # of neighbors = 223895
Ave neighs/atom = 222.118
Neighbor list builds = 0
Dangerous builds = 0
CR_UPDATE- 23.300680	23.300680	23.300680	0.000000	0.000000	0.000000
For k = 3, applying strain of 1
Changing box ...
  triclinic box = (0 0 0) to (23.3007 23.3007 23.3007) with tilt (0 0 0)
WARNING: Resetting reneighboring criteria during minimization (../min.cpp:168)
Ewald initialization ...
  G vector (1/distance) = 0.365055
  estimated absolute RMS force accuracy = 1.94166e-05
  estimated relative force accuracy = 1.34841e-06
  KSpace vectors: actual max1d max3d = 2084 10 4630
                  kxmax kymax kzmax  = 10 10 10
Setting up cg style minimization ...
  Unit style: metal
Memory usage per processor = 4.56156 Mbytes
Step Temp E_pair E_mol TotEng Press 
     239           10   -18274.068            0   -18272.767   -7203.7615 
     241           10   -18274.068            0   -18272.767   -7201.4197 
Loop time of 0.105009 on 12 procs for 2 steps with 1008 atoms

99.9% CPU use with 12 MPI tasks x no OpenMP threads

Minimization stats:
  Stopping criterion = linesearch alpha is zero
  Energy initial, next-to-last, final = 
        -18274.0683273      -18274.068328      -18274.068328
  Force two-norm initial, final = 0.00481275 0.00321271
  Force max component initial, final = 0.000368488 0.000304698
  Final line search alpha, max atom move = 0.000976562 2.97556e-07
  Iterations, force evaluations = 2 33

MPI task timing breakdown:
Section |  min time  |  avg time  |  max time  |%varavg| %total
---------------------------------------------------------------
Pair    | 0.035549   | 0.038154   | 0.042684   |   1.0 | 36.33
Kspace  | 0.058081   | 0.059764   | 0.061381   |   0.4 | 56.91
Neigh   | 0          | 0          | 0          |   0.0 |  0.00
Comm    | 0.0033598  | 0.0066036  | 0.008342   |   1.8 |  6.29
Output  | 0          | 0          | 0          |   0.0 |  0.00
Modify  | 0          | 0          | 0          |   0.0 |  0.00
Other   |            | 0.0004878  |            |       |  0.46

Nlocal:    84 ave 87 max 79 min
Histogram: 1 0 0 0 0 2 4 4 0 1
Nghost:    2602.5 ave 2628 max 2586 min
Histogram: 4 1 1 0 1 1 2 0 0 2
Neighs:    18627.8 ave 19341 max 17364 min
Histogram: 1 0 0 0 0 1 6 3 0 1

Total # of neighbors = 223533
Ave neighs/atom = 221.759
Neighbor list builds = 0
Dangerous builds = 0
CR_UPDATE- 23.300680	23.300680	23.300680	0.000000	0.000000	0.000000
For k = 4, applying strain of 1.00167
Changing box ...
  triclinic box = (0 0 -0.0194211) to (23.3007 23.3007 23.3201) with tilt (0 0 0)
WARNING: Resetting reneighboring criteria during minimization (../min.cpp:168)
Ewald initialization ...
  G vector (1/distance) = 0.365044
  estimated absolute RMS force accuracy = 1.94944e-05
  estimated relative force accuracy = 1.35381e-06
  KSpace vectors: actual max1d max3d = 2084 10 4630
                  kxmax kymax kzmax  = 10 10 10
Setting up cg style minimization ...
  Unit style: metal
Memory usage per processor = 4.56156 Mbytes
Step Temp E_pair E_mol TotEng Press 
     241           10   -18273.891            0   -18272.589   -10640.868 
     250           10   -18273.909            0   -18272.607   -9530.4176 
     252           10   -18273.909            0   -18272.607   -9516.3684 
Loop time of 0.188911 on 12 procs for 11 steps with 1008 atoms

100.0% CPU use with 12 MPI tasks x no OpenMP threads

Minimization stats:
  Stopping criterion = linesearch alpha is zero
  Energy initial, next-to-last, final = 
        -18273.8910512     -18273.9090548     -18273.9090548
  Force two-norm initial, final = 0.617418 0.100145
  Force max component initial, final = 0.0482764 0.0127077
  Final line search alpha, max atom move = 9.53674e-07 1.2119e-08
  Iterations, force evaluations = 11 61

MPI task timing breakdown:
Section |  min time  |  avg time  |  max time  |%varavg| %total
---------------------------------------------------------------
Pair    | 0.06469    | 0.06921    | 0.076031   |   1.3 | 36.64
Kspace  | 0.10392    | 0.10692    | 0.10974    |   0.5 | 56.60
Neigh   | 0          | 0          | 0          |   0.0 |  0.00
Comm    | 0.0058577  | 0.011867   | 0.014964   |   2.5 |  6.28
Output  | 2.408e-05  | 2.4915e-05 | 3.2187e-05 |   0.0 |  0.01
Modify  | 0          | 0          | 0          |   0.0 |  0.00
Other   |            | 0.0008921  |            |       |  0.47

Nlocal:    84 ave 87 max 79 min
Histogram: 1 0 0 0 0 2 4 4 0 1
Nghost:    2602 ave 2628 max 2586 min
Histogram: 5 0 1 0 1 1 2 0 0 2
Neighs:    18596.2 ave 19306 max 17336 min
Histogram: 1 0 0 0 0 1 6 3 0 1

Total # of neighbors = 223155
Ave neighs/atom = 221.384
Neighbor list builds = 0
Dangerous builds = 0
CR_UPDATE- 23.300680	23.300680	23.300680	0.000000	0.000000	0.000000
For k = 5, applying strain of 1.00333
Changing box ...
  triclinic box = (0 0 -0.0388306) to (23.3007 23.3007 23.3395) with tilt (0 0 0)
WARNING: Resetting reneighboring criteria during minimization (../min.cpp:168)
Ewald initialization ...
  G vector (1/distance) = 0.365032
  estimated absolute RMS force accuracy = 1.95788e-05
  estimated relative force accuracy = 1.35968e-06
  KSpace vectors: actual max1d max3d = 2084 10 4630
                  kxmax kymax kzmax  = 10 10 10
Setting up cg style minimization ...
  Unit style: metal
Memory usage per processor = 4.56156 Mbytes
Step Temp E_pair E_mol TotEng Press 
     252           10   -18273.631            0    -18272.33   -14039.353 
     265           10   -18273.696            0   -18272.395   -11772.925 
Loop time of 0.341765 on 12 procs for 13 steps with 1008 atoms

100.0% CPU use with 12 MPI tasks x no OpenMP threads

Minimization stats:
  Stopping criterion = linesearch alpha is zero
  Energy initial, next-to-last, final = 
        -18273.6311922     -18273.6963533     -18273.6963533
  Force two-norm initial, final = 1.22629 0.16489
  Force max component initial, final = 0.0956144 0.0141835
  Final line search alpha, max atom move = 2.38419e-07 3.38162e-09
  Iterations, force evaluations = 13 111

MPI task timing breakdown:
Section |  min time  |  avg time  |  max time  |%varavg| %total
---------------------------------------------------------------
Pair    | 0.1159     | 0.12489    | 0.13765    |   1.8 | 36.54
Kspace  | 0.1898     | 0.19391    | 0.19806    |   0.6 | 56.74
Neigh   | 0          | 0          | 0          |   0.0 |  0.00
Comm    | 0.010803   | 0.021408   | 0.026978   |   3.3 |  6.26
Output  | 0          | 0          | 0          |   0.0 |  0.00
Modify  | 0          | 0          | 0          |   0.0 |  0.00
Other   |            | 0.001554   |            |       |  0.45

Nlocal:    84 ave 87 max 79 min
Histogram: 1 0 0 0 0 2 4 4 0 1
Nghost:    2599 ave 2625 max 2582 min
Histogram: 4 2 0 0 1 1 1 1 1 1
Neighs:    18566.6 ave 19275 max 17306 min
Histogram: 1 0 0 0 0 1 6 3 0 1

Total # of neighbors = 222799
Ave neighs/atom = 221.031
Neighbor list builds = 0
Dangerous builds = 0
CR_UPDATE- 23.300680	23.300680	23.300680	0.000000	0.000000	0.000000
For k = 6, applying strain of 1.005
Changing box ...
  triclinic box = (0 0 -0.0582517) to (23.3007 23.3007 23.3589) with tilt (0 0 0)
WARNING: Resetting reneighboring criteria during minimization (../min.cpp:168)
Ewald initialization ...
  G vector (1/distance) = 0.365021
  estimated absolute RMS force accuracy = 1.96704e-05
  estimated relative force accuracy = 1.36604e-06
  KSpace vectors: actual max1d max3d = 2084 10 4630
                  kxmax kymax kzmax  = 10 10 10
Setting up cg style minimization ...
  Unit style: metal
Memory usage per processor = 4.56156 Mbytes
Step Temp E_pair E_mol TotEng Press 
     265           10   -18273.294            0   -18271.992   -17404.788 
     285           10   -18273.447            0   -18272.145   -13804.386 
Loop time of 0.381282 on 12 procs for 20 steps with 1008 atoms

100.0% CPU use with 12 MPI tasks x no OpenMP threads

Minimization stats:
  Stopping criterion = linesearch alpha is zero
  Energy initial, next-to-last, final = 
        -18273.2936497     -18273.4470767     -18273.4470767
  Force two-norm initial, final = 1.82894 0.129094
  Force max component initial, final = 0.142133 0.0108284
  Final line search alpha, max atom move = 4.76837e-07 5.16338e-09
  Iterations, force evaluations = 20 123

MPI task timing breakdown:
Section |  min time  |  avg time  |  max time  |%varavg| %total
---------------------------------------------------------------
Pair    | 0.12858    | 0.13804    | 0.15515    |   2.0 | 36.21
Kspace  | 0.21219    | 0.21809    | 0.22294    |   0.8 | 57.20
Neigh   | 0          | 0          | 0          |   0.0 |  0.00
Comm    | 0.011857   | 0.023408   | 0.029492   |   3.4 |  6.14
Output  | 0          | 0          | 0          |   0.0 |  0.00
Modify  | 0          | 0          | 0          |   0.0 |  0.00
Other   |            | 0.001737   |            |       |  0.46

Nlocal:    84 ave 87 max 79 min
Histogram: 1 0 0 0 0 2 4 4 0 1
Nghost:    2597.5 ave 2625 max 2578 min
Histogram: 2 2 2 0 1 1 2 0 1 1
Neighs:    18535.8 ave 19244 max 17270 min
Histogram: 1 0 0 0 0 1 6 3 0 1

Total # of neighbors = 222430
Ave neighs/atom = 220.665
Neighbor list builds = 0
Dangerous builds = 0
CR_UPDATE- 23.300680	23.300680	23.300680	0.000000	0.000000	0.000000
For k = 0, applying strain of 0.995
Changing box ...
  triclinic box = (0 0 0) to (23.3007 23.3007 23.3007) with tilt (-0.116503 0 0)
WARNING: Resetting reneighboring criteria during minimization (../min.cpp:168)
Ewald initialization ...
  G vector (1/distance) = 0.365055
  estimated absolute RMS force accuracy = 1.94166e-05
  estimated relative force accuracy = 1.34841e-06
  KSpace vectors: actual max1d max3d = 2079 10 4630
                  kxmax kymax kzmax  = 10 10 10
Setting up cg style minimization ...
  Unit style: metal
Memory usage per processor = 4.56156 Mbytes
Step Temp E_pair E_mol TotEng Press 
     285           10   -18273.839            0   -18272.538   -7179.2317 
     300           10     -18273.9            0   -18272.598   -7086.7131 
     307           10   -18273.901            0     -18272.6   -7054.4457 
Loop time of 0.253382 on 12 procs for 22 steps with 1008 atoms

100.0% CPU use with 12 MPI tasks x no OpenMP threads

Minimization stats:
  Stopping criterion = linesearch alpha is zero
  Energy initial, next-to-last, final = 
        -18273.8393449      -18273.901242      -18273.901242
  Force two-norm initial, final = 1.24019 0.0725244
  Force max component initial, final = 0.123367 0.00652635
  Final line search alpha, max atom move = 1.90735e-06 1.2448e-08
  Iterations, force evaluations = 22 81

MPI task timing breakdown:
Section |  min time  |  avg time  |  max time  |%varavg| %total
---------------------------------------------------------------
Pair    | 0.086009   | 0.092229   | 0.10353    |   1.6 | 36.40
Kspace  | 0.14008    | 0.14406    | 0.14774    |   0.6 | 56.85
Neigh   | 0          | 0          | 0          |   0.0 |  0.00
Comm    | 0.0080454  | 0.015727   | 0.019796   |   2.8 |  6.21
Output  | 2.3842e-05 | 2.5312e-05 | 3.2902e-05 |   0.0 |  0.01
Modify  | 0          | 0          | 0          |   0.0 |  0.00
Other   |            | 0.001342   |            |       |  0.53

Nlocal:    84 ave 87 max 79 min
Histogram: 1 0 0 0 0 2 4 4 0 1
Nghost:    2602.5 ave 2628 max 2586 min
Histogram: 4 1 1 0 1 1 2 0 0 2
Neighs:    18628.2 ave 19342 max 17365 min
Histogram: 1 0 0 0 0 1 6 3 0 1

Total # of neighbors = 223539
Ave neighs/atom = 221.765
Neighbor list builds = 0
Dangerous builds = 0
CR_UPDATE- 23.300680	23.300680	23.300680	0.000000	0.000000	0.000000
For k = 1, applying strain of 0.996667
Changing box ...
  triclinic box = (0 0 0) to (23.3007 23.3007 23.3007) with tilt (-0.077661 0 0)
WARNING: Resetting reneighboring criteria during minimization (../min.cpp:168)
Ewald initialization ...
  G vector (1/distance) = 0.365055
  estimated absolute RMS force accuracy = 1.94166e-05
  estimated relative force accuracy = 1.34841e-06
  KSpace vectors: actual max1d max3d = 2081 10 4630
                  kxmax kymax kzmax  = 10 10 10
Setting up cg style minimization ...
  Unit style: metal
Memory usage per processor = 4.56156 Mbytes
Step Temp E_pair E_mol TotEng Press 
     307           10   -18273.943            0   -18272.641   -7191.8386 
     316           10   -18273.968            0   -18272.667   -7142.2007 
Loop time of 0.183745 on 12 procs for 9 steps with 1008 atoms

100.0% CPU use with 12 MPI tasks x no OpenMP threads

Minimization stats:
  Stopping criterion = linesearch alpha is zero
  Energy initial, next-to-last, final = 
        -18273.9430946     -18273.9682141     -18273.9682141
  Force two-norm initial, final = 0.826704 0.140963
  Force max component initial, final = 0.0821478 0.0138492
  Final line search alpha, max atom move = 4.76837e-07 6.60382e-09
  Iterations, force evaluations = 9 59

MPI task timing breakdown:
Section |  min time  |  avg time  |  max time  |%varavg| %total
---------------------------------------------------------------
Pair    | 0.062704   | 0.067649   | 0.074426   |   1.3 | 36.82
Kspace  | 0.10084    | 0.10423    | 0.10695    |   0.5 | 56.72
Neigh   | 0          | 0          | 0          |   0.0 |  0.00
Comm    | 0.0057747  | 0.010989   | 0.013819   |   2.3 |  5.98
Output  | 0          | 0          | 0          |   0.0 |  0.00
Modify  | 0          | 0          | 0          |   0.0 |  0.00
Other   |            | 0.0008774  |            |       |  0.48

Nlocal:    84 ave 87 max 79 min
Histogram: 1 0 0 0 0 2 4 4 0 1
Nghost:    2602.5 ave 2628 max 2586 min
Histogram: 4 1 1 0 1 1 2 0 0 2
Neighs:    18627 ave 19347 max 17366 min
Histogram: 1 0 0 0 0 1 6 3 0 1

Total # of neighbors = 223524
Ave neighs/atom = 221.75
Neighbor list builds = 0
Dangerous builds = 0
CR_UPDATE- 23.300680	23.300680	23.300680	0.000000	0.000000	0.000000
For k = 2, applying strain of 0.998333
Changing box ...
  triclinic box = (0 0 0) to (23.3007 23.3007 23.3007) with tilt (-0.038842 0 0)
WARNING: Resetting reneighboring criteria during minimization (../min.cpp:168)
Ewald initialization ...
  G vector (1/distance) = 0.365055
  estimated absolute RMS force accuracy = 1.94166e-05
  estimated relative force accuracy = 1.34841e-06
  KSpace vectors: actual max1d max3d = 2082 10 4630
                  kxmax kymax kzmax  = 10 10 10
Setting up cg style minimization ...
  Unit style: metal
Memory usage per processor = 4.56156 Mbytes
Step Temp E_pair E_mol TotEng Press 
     316           10   -18274.018            0   -18272.717   -7199.6928 
     326           10   -18274.027            0   -18272.725   -7167.3219 
Loop time of 0.178428 on 12 procs for 10 steps with 1008 atoms

100.3% CPU use with 12 MPI tasks x no OpenMP threads

Minimization stats:
  Stopping criterion = linesearch alpha is zero
  Energy initial, next-to-last, final = 
        -18274.0182462     -18274.0267975     -18274.0267975
  Force two-norm initial, final = 0.413539 0.0635335
  Force max component initial, final = 0.0410548 0.00941341
  Final line search alpha, max atom move = 1.90735e-06 1.79547e-08
  Iterations, force evaluations = 10 57

MPI task timing breakdown:
Section |  min time  |  avg time  |  max time  |%varavg| %total
---------------------------------------------------------------
Pair    | 0.060971   | 0.06519    | 0.072873   |   1.3 | 36.54
Kspace  | 0.099232   | 0.10164    | 0.10416    |   0.5 | 56.97
Neigh   | 0          | 0          | 0          |   0.0 |  0.00
Comm    | 0.0055258  | 0.010766   | 0.013561   |   2.3 |  6.03
Output  | 0          | 0          | 0          |   0.0 |  0.00
Modify  | 0          | 0          | 0          |   0.0 |  0.00
Other   |            | 0.0008299  |            |       |  0.47

Nlocal:    84 ave 87 max 79 min
Histogram: 1 0 0 0 0 2 4 4 0 1
Nghost:    2602.5 ave 2628 max 2586 min
Histogram: 4 1 1 0 1 1 2 0 0 2
Neighs:    18625.7 ave 19339 max 17364 min
Histogram: 1 0 0 0 0 1 6 3 0 1

Total # of neighbors = 223508
Ave neighs/atom = 221.734
Neighbor list builds = 0
Dangerous builds = 0
CR_UPDATE- 23.300680	23.300680	23.300680	0.000000	0.000000	0.000000
For k = 3, applying strain of 1
Changing box ...
  triclinic box = (0 0 0) to (23.3007 23.3007 23.3007) with tilt (0 0 0)
WARNING: Resetting reneighboring criteria during minimization (../min.cpp:168)
Ewald initialization ...
  G vector (1/distance) = 0.365055
  estimated absolute RMS force accuracy = 1.94166e-05
  estimated relative force accuracy = 1.34841e-06
  KSpace vectors: actual max1d max3d = 2084 10 4630
                  kxmax kymax kzmax  = 10 10 10
Setting up cg style minimization ...
  Unit style: metal
Memory usage per processor = 4.56156 Mbytes
Step Temp E_pair E_mol TotEng Press 
     326           10   -18274.068            0   -18272.767   -7203.7615 
     328           10   -18274.068            0   -18272.767   -7201.4197 
Loop time of 0.10502 on 12 procs for 2 steps with 1008 atoms

99.9% CPU use with 12 MPI tasks x no OpenMP threads

Minimization stats:
  Stopping criterion = linesearch alpha is zero
  Energy initial, next-to-last, final = 
        -18274.0683273      -18274.068328      -18274.068328
  Force two-norm initial, final = 0.00481275 0.00321271
  Force max component initial, final = 0.000368488 0.000304698
  Final line search alpha, max atom move = 0.000976562 2.97556e-07
  Iterations, force evaluations = 2 33

MPI task timing breakdown:
Section |  min time  |  avg time  |  max time  |%varavg| %total
---------------------------------------------------------------
Pair    | 0.035214   | 0.038042   | 0.042921   |   1.1 | 36.22
Kspace  | 0.058284   | 0.059925   | 0.061598   |   0.4 | 57.06
Neigh   | 0          | 0          | 0          |   0.0 |  0.00
Comm    | 0.0032871  | 0.0065304  | 0.0082393  |   1.8 |  6.22
Output  | 0          | 0          | 0          |   0.0 |  0.00
Modify  | 0          | 0          | 0          |   0.0 |  0.00
Other   |            | 0.0005215  |            |       |  0.50

Nlocal:    84 ave 87 max 79 min
Histogram: 1 0 0 0 0 2 4 4 0 1
Nghost:    2602.5 ave 2628 max 2586 min
Histogram: 4 1 1 0 1 1 2 0 0 2
Neighs:    18627.8 ave 19341 max 17364 min
Histogram: 1 0 0 0 0 1 6 3 0 1

Total # of neighbors = 223533
Ave neighs/atom = 221.759
Neighbor list builds = 0
Dangerous builds = 0
CR_UPDATE- 23.300680	23.300680	23.300680	0.000000	0.000000	0.000000
For k = 4, applying strain of 1.00167
Changing box ...
  triclinic box = (0 0 0) to (23.3007 23.3007 23.3007) with tilt (0.038842 0 0)
WARNING: Resetting reneighboring criteria during minimization (../min.cpp:168)
Ewald initialization ...
  G vector (1/distance) = 0.365055
  estimated absolute RMS force accuracy = 1.94166e-05
  estimated relative force accuracy = 1.34841e-06
  KSpace vectors: actual max1d max3d = 2082 10 4630
                  kxmax kymax kzmax  = 10 10 10
Setting up cg style minimization ...
  Unit style: metal
Memory usage per processor = 4.56156 Mbytes
Step Temp E_pair E_mol TotEng Press 
     328           10   -18274.089            0   -18272.788   -7202.8758 
     331           10   -18274.094            0   -18272.792   -7215.8264 
Loop time of 0.152844 on 12 procs for 3 steps with 1008 atoms

99.8% CPU use with 12 MPI tasks x no OpenMP threads

Minimization stats:
  Stopping criterion = linesearch alpha is zero
  Energy initial, next-to-last, final = 
         -18274.089341     -18274.0939022     -18274.0939022
  Force two-norm initial, final = 0.413301 0.192761
  Force max component initial, final = 0.0408437 0.0171066
  Final line search alpha, max atom move = 2.38419e-07 4.07852e-09
  Iterations, force evaluations = 3 49

MPI task timing breakdown:
Section |  min time  |  avg time  |  max time  |%varavg| %total
---------------------------------------------------------------
Pair    | 0.052153   | 0.055837   | 0.061786   |   1.2 | 36.53
Kspace  | 0.084573   | 0.086882   | 0.089203   |   0.4 | 56.84
Neigh   | 0          | 0          | 0          |   0.0 |  0.00
Comm    | 0.0047917  | 0.0094561  | 0.011925   |   2.2 |  6.19
Output  | 0          | 0          | 0          |   0.0 |  0.00
Modify  | 0          | 0          | 0          |   0.0 |  0.00
Other   |            | 0.000669   |            |       |  0.44

Nlocal:    84 ave 87 max 79 min
Histogram: 1 0 0 0 0 2 4 4 0 1
Nghost:    2602.5 ave 2628 max 2586 min
Histogram: 4 1 1 0 1 1 2 0 0 2
Neighs:    18627.6 ave 19339 max 17360 min
Histogram: 1 0 0 0 0 1 6 3 0 1

Total # of neighbors = 223531
Ave neighs/atom = 221.757
Neighbor list builds = 0
Dangerous builds = 0
CR_UPDATE- 23.300680	23.300680	23.300680	0.000000	0.000000	0.000000
For k = 5, applying strain of 1.00333
Changing box ...
  triclinic box = (0 0 0) to (23.3007 23.3007 23.3007) with tilt (0.077661 0 0)
WARNING: Resetting reneighboring criteria during minimization (../min.cpp:168)
Ewald initialization ...
  G vector (1/distance) = 0.365055
  estimated absolute RMS force accuracy = 1.94166e-05
  estimated relative force accuracy = 1.34841e-06
  KSpace vectors: actual max1d max3d = 2081 10 4630
                  kxmax kymax kzmax  = 10 10 10
Setting up cg style minimization ...
  Unit style: metal
Memory usage per processor = 4.56156 Mbytes
Step Temp E_pair E_mol TotEng Press 
     331           10   -18274.078            0   -18272.776   -7196.3812 
     341           10   -18274.104            0   -18272.803   -7247.9142 
Loop time of 0.19102 on 12 procs for 10 steps with 1008 atoms

99.8% CPU use with 12 MPI tasks x no OpenMP threads

Minimization stats:
  Stopping criterion = linesearch alpha is zero
  Energy initial, next-to-last, final = 
        -18274.0781185     -18274.1041918     -18274.1041918
  Force two-norm initial, final = 0.826411 0.127194
  Force max component initial, final = 0.0816097 0.0207487
  Final line search alpha, max atom move = 4.76837e-07 9.89377e-09
  Iterations, force evaluations = 10 61

MPI task timing breakdown:
Section |  min time  |  avg time  |  max time  |%varavg| %total
---------------------------------------------------------------
Pair    | 0.064652   | 0.069456   | 0.078019   |   1.3 | 36.36
Kspace  | 0.1062     | 0.1087     | 0.11155    |   0.4 | 56.91
Neigh   | 0          | 0          | 0          |   0.0 |  0.00
Comm    | 0.0059311  | 0.011961   | 0.015091   |   2.5 |  6.26
Output  | 0          | 0          | 0          |   0.0 |  0.00
Modify  | 0          | 0          | 0          |   0.0 |  0.00
Other   |            | 0.0008982  |            |       |  0.47

Nlocal:    84 ave 87 max 79 min
Histogram: 1 0 0 0 0 2 4 4 0 1
Nghost:    2602.5 ave 2628 max 2586 min
Histogram: 4 1 1 0 1 1 2 0 0 2
Neighs:    18625.3 ave 19330 max 17357 min
Histogram: 1 0 0 0 0 1 6 3 0 1

Total # of neighbors = 223504
Ave neighs/atom = 221.73
Neighbor list builds = 0
Dangerous builds = 0
CR_UPDATE- 23.300680	23.300680	23.300680	0.000000	0.000000	0.000000
For k = 6, applying strain of 1.005
Changing box ...
  triclinic box = (0 0 0) to (23.3007 23.3007 23.3007) with tilt (0.116503 0 0)
WARNING: Resetting reneighboring criteria during minimization (../min.cpp:168)
Ewald initialization ...
  G vector (1/distance) = 0.365055
  estimated absolute RMS force accuracy = 1.94166e-05
  estimated relative force accuracy = 1.34841e-06
  KSpace vectors: actual max1d max3d = 2079 10 4630
                  kxmax kymax kzmax  = 10 10 10
Setting up cg style minimization ...
  Unit style: metal
Memory usage per processor = 4.56156 Mbytes
Step Temp E_pair E_mol TotEng Press 
     341           10   -18274.045            0   -18272.743   -7186.7422 
     350           10   -18274.098            0   -18272.796   -7272.1732 
     355           10   -18274.101            0   -18272.799   -7283.8404 
Loop time of 0.215216 on 12 procs for 14 steps with 1008 atoms

100.2% CPU use with 12 MPI tasks x no OpenMP threads

Minimization stats:
  Stopping criterion = linesearch alpha is zero
  Energy initial, next-to-last, final = 
         -18274.044671     -18274.1007032     -18274.1007032
  Force two-norm initial, final = 1.23981 0.121572
  Force max component initial, final = 0.122291 0.0115466
  Final line search alpha, max atom move = 4.76837e-07 5.50584e-09
  Iterations, force evaluations = 14 69

MPI task timing breakdown:
Section |  min time  |  avg time  |  max time  |%varavg| %total
---------------------------------------------------------------
Pair    | 0.073745   | 0.078852   | 0.08734    |   1.4 | 36.64
Kspace  | 0.11865    | 0.12193    | 0.12485    |   0.5 | 56.66
Neigh   | 0          | 0          | 0          |   0.0 |  0.00
Comm    | 0.0068438  | 0.013309   | 0.016746   |   2.6 |  6.18
Output  | 2.408e-05  | 2.5213e-05 | 3.1948e-05 |   0.0 |  0.01
Modify  | 0          | 0          | 0          |   0.0 |  0.00
Other   |            | 0.001096   |            |       |  0.51

Nlocal:    84 ave 87 max 79 min
Histogram: 1 0 0 0 0 2 4 4 0 1
Nghost:    2602.5 ave 2628 max 2586 min
Histogram: 4 1 1 0 1 1 2 0 0 2
Neighs:    18627.2 ave 19324 max 17359 min
Histogram: 1 0 0 0 0 1 6 2 1 1

Total # of neighbors = 223527
Ave neighs/atom = 221.753
Neighbor list builds = 0
Dangerous builds = 0
CR_UPDATE- 23.300680	23.300680	23.300680	0.000000	0.000000	0.000000
For k = 0, applying strain of 0.995
Changing box ...
  triclinic box = (0 0 0) to (23.3007 23.3007 23.3007) with tilt (0 -0.116503 0)
WARNING: Resetting reneighboring criteria during minimization (../min.cpp:168)
Ewald initialization ...
  G vector (1/distance) = 0.365055
  estimated absolute RMS force accuracy = 1.94166e-05
  estimated relative force accuracy = 1.34841e-06
  KSpace vectors: actual max1d max3d = 2079 10 4630
                  kxmax kymax kzmax  = 10 10 10
Setting up cg style minimization ...
  Unit style: metal
Memory usage per processor = 4.56156 Mbytes
Step Temp E_pair E_mol TotEng Press 
     355           10    -18273.94            0   -18272.638   -7141.8642 
     372           10   -18273.996            0   -18272.694   -7233.3224 
Loop time of 0.442709 on 12 procs for 17 steps with 1008 atoms

100.0% CPU use with 12 MPI tasks x no OpenMP threads

Minimization stats:
  Stopping criterion = linesearch alpha is zero
  Energy initial, next-to-last, final = 
         -18273.940084     -18273.9960827     -18273.9960827
  Force two-norm initial, final = 1.23961 0.0983313
  Force max component initial, final = 0.109257 0.00769577
  Final line search alpha, max atom move = 9.53674e-07 7.33926e-09
  Iterations, force evaluations = 17 143

MPI task timing breakdown:
Section |  min time  |  avg time  |  max time  |%varavg| %total
---------------------------------------------------------------
Pair    | 0.1504     | 0.16129    | 0.17983    |   2.0 | 36.43
Kspace  | 0.24344    | 0.25185    | 0.25725    |   0.8 | 56.89
Neigh   | 0          | 0          | 0          |   0.0 |  0.00
Comm    | 0.014107   | 0.027518   | 0.034713   |   3.7 |  6.22
Output  | 0          | 0          | 0          |   0.0 |  0.00
Modify  | 0          | 0          | 0          |   0.0 |  0.00
Other   |            | 0.002047   |            |       |  0.46

Nlocal:    84 ave 87 max 79 min
Histogram: 1 0 0 0 0 2 4 4 0 1
Nghost:    2602.5 ave 2628 max 2586 min
Histogram: 4 1 1 0 1 1 2 0 0 2
Neighs:    18627.2 ave 19339 max 17369 min
Histogram: 1 0 0 0 0 1 6 3 0 1

Total # of neighbors = 223526
Ave neighs/atom = 221.752
Neighbor list builds = 0
Dangerous builds = 0
CR_UPDATE- 23.300680	23.300680	23.300680	0.000000	0.000000	0.000000
For k = 1, applying strain of 0.996667
Changing box ...
  triclinic box = (0 0 0) to (23.3007 23.3007 23.3007) with tilt (0 -0.077661 0)
WARNING: Resetting reneighboring criteria during minimization (../min.cpp:168)
Ewald initialization ...
  G vector (1/distance) = 0.365055
  estimated absolute RMS force accuracy = 1.94166e-05
  estimated relative force accuracy = 1.34841e-06
  KSpace vectors: actual max1d max3d = 2081 10 4630
                  kxmax kymax kzmax  = 10 10 10
Setting up cg style minimization ...
  Unit style: metal
Memory usage per processor = 4.56156 Mbytes
Step Temp E_pair E_mol TotEng Press 
     372           10   -18274.009            0   -18272.708   -7167.1224 
     383           10   -18274.034            0   -18272.733   -7222.0021 
Loop time of 0.190427 on 12 procs for 11 steps with 1008 atoms

100.2% CPU use with 12 MPI tasks x no OpenMP threads

Minimization stats:
  Stopping criterion = linesearch alpha is zero
  Energy initial, next-to-last, final = 
        -18274.0093627     -18274.0343339     -18274.0343339
  Force two-norm initial, final = 0.826427 0.108728
  Force max component initial, final = 0.072702 0.0113353
  Final line search alpha, max atom move = 9.53674e-07 1.08102e-08
  Iterations, force evaluations = 11 61

MPI task timing breakdown:
Section |  min time  |  avg time  |  max time  |%varavg| %total
---------------------------------------------------------------
Pair    | 0.065095   | 0.069779   | 0.077223   |   1.3 | 36.64
Kspace  | 0.10547    | 0.10804    | 0.11046    |   0.5 | 56.73
Neigh   | 0          | 0          | 0          |   0.0 |  0.00
Comm    | 0.006031   | 0.011688   | 0.014756   |   2.4 |  6.14
Output  | 0          | 0          | 0          |   0.0 |  0.00
Modify  | 0          | 0          | 0          |   0.0 |  0.00
Other   |            | 0.000925   |            |       |  0.49

Nlocal:    84 ave 87 max 79 min
Histogram: 1 0 0 0 0 2 4 4 0 1
Nghost:    2602.5 ave 2628 max 2586 min
Histogram: 4 1 1 0 1 1 2 0 0 2
Neighs:    18625.3 ave 19339 max 17363 min
Histogram: 1 0 0 0 0 1 6 3 0 1

Total # of neighbors = 223504
Ave neighs/atom = 221.73
Neighbor list builds = 0
Dangerous builds = 0
CR_UPDATE- 23.300680	23.300680	23.300680	0.000000	0.000000	0.000000
For k = 2, applying strain of 0.998333
Changing box ...
  triclinic box = (0 0 0) to (23.3007 23.3007 23.3007) with tilt (0 -0.038842 0)
WARNING: Resetting reneighboring criteria during minimization (../min.cpp:168)
Ewald initialization ...
  G vector (1/distance) = 0.365055
  estimated absolute RMS force accuracy = 1.94166e-05
  estimated relative force accuracy = 1.34841e-06
  KSpace vectors: actual max1d max3d = 2082 10 4630
                  kxmax kymax kzmax  = 10 10 10
Setting up cg style minimization ...
  Unit style: metal
Memory usage per processor = 4.56156 Mbytes
Step Temp E_pair E_mol TotEng Press 
     383           10   -18274.053            0   -18272.752   -7188.0128 
     390           10   -18274.059            0   -18272.757   -7198.8811 
Loop time of 0.16504 on 12 procs for 7 steps with 1008 atoms

99.9% CPU use with 12 MPI tasks x no OpenMP threads

Minimization stats:
  Stopping criterion = linesearch alpha is zero
  Energy initial, next-to-last, final = 
        -18274.0533309     -18274.0588838     -18274.0588838
  Force two-norm initial, final = 0.413406 0.0872575
  Force max component initial, final = 0.0363655 0.00959427
  Final line search alpha, max atom move = 9.53674e-07 9.14981e-09
  Iterations, force evaluations = 7 53

MPI task timing breakdown:
Section |  min time  |  avg time  |  max time  |%varavg| %total
---------------------------------------------------------------
Pair    | 0.057076   | 0.060954   | 0.066606   |   1.1 | 36.93
Kspace  | 0.091423   | 0.093294   | 0.09525    |   0.4 | 56.53
Neigh   | 0          | 0          | 0          |   0.0 |  0.00
Comm    | 0.0052476  | 0.010015   | 0.012615   |   2.2 |  6.07
Output  | 0          | 0          | 0          |   0.0 |  0.00
Modify  | 0          | 0          | 0          |   0.0 |  0.00
Other   |            | 0.0007781  |            |       |  0.47

Nlocal:    84 ave 87 max 79 min
Histogram: 1 0 0 0 0 2 4 4 0 1
Nghost:    2602.5 ave 2628 max 2586 min
Histogram: 4 1 1 0 1 1 2 0 0 2
Neighs:    18625.9 ave 19340 max 17364 min
Histogram: 1 0 0 0 0 1 6 3 0 1

Total # of neighbors = 223511
Ave neighs/atom = 221.737
Neighbor list builds = 0
Dangerous builds = 0
CR_UPDATE- 23.300680	23.300680	23.300680	0.000000	0.000000	0.000000
For k = 3, applying strain of 1
Changing box ...
  triclinic box = (0 0 0) to (23.3007 23.3007 23.3007) with tilt (0 0 0)
WARNING: Resetting reneighboring criteria during minimization (../min.cpp:168)
Ewald initialization ...
  G vector (1/distance) = 0.365055
  estimated absolute RMS force accuracy = 1.94166e-05
  estimated relative force accuracy = 1.34841e-06
  KSpace vectors: actual max1d max3d = 2084 10 4630
                  kxmax kymax kzmax  = 10 10 10
Setting up cg style minimization ...
  Unit style: metal
Memory usage per processor = 4.56156 Mbytes
Step Temp E_pair E_mol TotEng Press 
     390           10   -18274.068            0   -18272.767   -7203.7615 
     392           10   -18274.068            0   -18272.767   -7201.4197 
Loop time of 0.104661 on 12 procs for 2 steps with 1008 atoms

99.4% CPU use with 12 MPI tasks x no OpenMP threads

Minimization stats:
  Stopping criterion = linesearch alpha is zero
  Energy initial, next-to-last, final = 
        -18274.0683273      -18274.068328      -18274.068328
  Force two-norm initial, final = 0.00481275 0.00321271
  Force max component initial, final = 0.000368488 0.000304698
  Final line search alpha, max atom move = 0.000976562 2.97556e-07
  Iterations, force evaluations = 2 33

MPI task timing breakdown:
Section |  min time  |  avg time  |  max time  |%varavg| %total
---------------------------------------------------------------
Pair    | 0.035725   | 0.038212   | 0.042446   |   1.0 | 36.51
Kspace  | 0.058111   | 0.059359   | 0.061063   |   0.4 | 56.72
Neigh   | 0          | 0          | 0          |   0.0 |  0.00
Comm    | 0.0033047  | 0.0066166  | 0.0083444  |   1.8 |  6.32
Output  | 0          | 0          | 0          |   0.0 |  0.00
Modify  | 0          | 0          | 0          |   0.0 |  0.00
Other   |            | 0.0004733  |            |       |  0.45

Nlocal:    84 ave 87 max 79 min
Histogram: 1 0 0 0 0 2 4 4 0 1
Nghost:    2602.5 ave 2628 max 2586 min
Histogram: 4 1 1 0 1 1 2 0 0 2
Neighs:    18627.8 ave 19341 max 17364 min
Histogram: 1 0 0 0 0 1 6 3 0 1

Total # of neighbors = 223533
Ave neighs/atom = 221.759
Neighbor list builds = 0
Dangerous builds = 0
CR_UPDATE- 23.300680	23.300680	23.300680	0.000000	0.000000	0.000000
For k = 4, applying strain of 1.00167
Changing box ...
  triclinic box = (0 0 0) to (23.3007 23.3007 23.3007) with tilt (0 0.038842 0)
WARNING: Resetting reneighboring criteria during minimization (../min.cpp:168)
Ewald initialization ...
  G vector (1/distance) = 0.365055
  estimated absolute RMS force accuracy = 1.94166e-05
  estimated relative force accuracy = 1.34841e-06
  KSpace vectors: actual max1d max3d = 2082 10 4630
                  kxmax kymax kzmax  = 10 10 10
Setting up cg style minimization ...
  Unit style: metal
Memory usage per processor = 4.56156 Mbytes
Step Temp E_pair E_mol TotEng Press 
     392           10   -18274.058            0   -18272.756   -7214.9686 
     399           10   -18274.064            0   -18272.762   -7192.4685 
Loop time of 0.166521 on 12 procs for 7 steps with 1008 atoms

99.5% CPU use with 12 MPI tasks x no OpenMP threads

Minimization stats:
  Stopping criterion = linesearch alpha is zero
  Energy initial, next-to-last, final = 
        -18274.0575482     -18274.0640578     -18274.0640578
  Force two-norm initial, final = 0.413477 0.087194
  Force max component initial, final = 0.0363067 0.00944465
  Final line search alpha, max atom move = 9.53674e-07 9.00712e-09
  Iterations, force evaluations = 7 53

MPI task timing breakdown:
Section |  min time  |  avg time  |  max time  |%varavg| %total
---------------------------------------------------------------
Pair    | 0.056342   | 0.060502   | 0.067852   |   1.3 | 36.33
Kspace  | 0.09241    | 0.094849   | 0.096992   |   0.4 | 56.96
Neigh   | 0          | 0          | 0          |   0.0 |  0.00
Comm    | 0.0053067  | 0.010382   | 0.013082   |   2.3 |  6.23
Output  | 0          | 0          | 0          |   0.0 |  0.00
Modify  | 0          | 0          | 0          |   0.0 |  0.00
Other   |            | 0.0007881  |            |       |  0.47

Nlocal:    84 ave 87 max 79 min
Histogram: 1 0 0 0 0 2 4 4 0 1
Nghost:    2602.5 ave 2628 max 2586 min
Histogram: 4 1 1 0 1 1 2 0 0 2
Neighs:    18627.6 ave 19335 max 17366 min
Histogram: 1 0 0 0 0 1 6 3 0 1

Total # of neighbors = 223531
Ave neighs/atom = 221.757
Neighbor list builds = 0
Dangerous builds = 0
CR_UPDATE- 23.300680	23.300680	23.300680	0.000000	0.000000	0.000000
For k = 5, applying strain of 1.00333
Changing box ...
  triclinic box = (0 0 0) to (23.3007 23.3007 23.3007) with tilt (0 0.077661 0)
WARNING: Resetting reneighboring criteria during minimization (../min.cpp:168)
Ewald initialization ...
  G vector (1/distance) = 0.365055
  estimated absolute RMS force accuracy = 1.94166e-05
  estimated relative force accuracy = 1.34841e-06
  KSpace vectors: actual max1d max3d = 2081 10 4630
                  kxmax kymax kzmax  = 10 10 10
Setting up cg style minimization ...
  Unit style: metal
Memory usage per processor = 4.56156 Mbytes
Step Temp E_pair E_mol TotEng Press 
     399           10   -18274.016            0   -18272.715   -7220.6104 
     400           10   -18274.026            0   -18272.724   -7214.5567 
     425           10   -18274.043            0   -18272.741   -7141.0792 
Loop time of 0.265402 on 12 procs for 26 steps with 1008 atoms

99.7% CPU use with 12 MPI tasks x no OpenMP threads

Minimization stats:
  Stopping criterion = linesearch alpha is zero
  Energy initial, next-to-last, final = 
        -18274.0162458     -18274.0427703     -18274.0427703
  Force two-norm initial, final = 0.82677 0.0347752
  Force max component initial, final = 0.0724751 0.00259694
  Final line search alpha, max atom move = 7.62939e-06 1.98131e-08
  Iterations, force evaluations = 26 85

MPI task timing breakdown:
Section |  min time  |  avg time  |  max time  |%varavg| %total
---------------------------------------------------------------
Pair    | 0.089987   | 0.096563   | 0.1081     |   1.6 | 36.38
Kspace  | 0.14685    | 0.15061    | 0.15482    |   0.6 | 56.75
Neigh   | 0          | 0          | 0          |   0.0 |  0.00
Comm    | 0.0083857  | 0.016772   | 0.021138   |   3.0 |  6.32
Output  | 2.2173e-05 | 2.3146e-05 | 3.0041e-05 |   0.0 |  0.01
Modify  | 0          | 0          | 0          |   0.0 |  0.00
Other   |            | 0.001438   |            |       |  0.54

Nlocal:    84 ave 87 max 79 min
Histogram: 1 0 0 0 0 2 4 4 0 1
Nghost:    2602.5 ave 2628 max 2586 min
Histogram: 4 1 1 0 1 1 2 0 0 2
Neighs:    18626.9 ave 19330 max 17368 min
Histogram: 1 0 0 0 0 1 6 3 0 1

Total # of neighbors = 223523
Ave neighs/atom = 221.749
Neighbor list builds = 0
Dangerous builds = 0
CR_UPDATE- 23.300680	23.300680	23.300680	0.000000	0.000000	0.000000
For k = 6, applying strain of 1.005
Changing box ...
  triclinic box = (0 0 0) to (23.3007 23.3007 23.3007) with tilt (0 0.116503 0)
WARNING: Resetting reneighboring criteria during minimization (../min.cpp:168)
Ewald initialization ...
  G vector (1/distance) = 0.365055
  estimated absolute RMS force accuracy = 1.94166e-05
  estimated relative force accuracy = 1.34841e-06
  KSpace vectors: actual max1d max3d = 2079 10 4630
                  kxmax kymax kzmax  = 10 10 10
Setting up cg style minimization ...
  Unit style: metal
Memory usage per processor = 4.56156 Mbytes
Step Temp E_pair E_mol TotEng Press 
     425           10   -18273.949            0   -18272.648   -7221.8963 
     437           10   -18274.003            0   -18272.701   -7144.5285 
Loop time of 0.201791 on 12 procs for 12 steps with 1008 atoms

99.8% CPU use with 12 MPI tasks x no OpenMP threads

Minimization stats:
  Stopping criterion = linesearch alpha is zero
  Energy initial, next-to-last, final = 
        -18273.9492521     -18274.0026756     -18274.0026756
  Force two-norm initial, final = 1.24052 0.145757
  Force max component initial, final = 0.108702 0.0205155
  Final line search alpha, max atom move = 4.76837e-07 9.78255e-09
  Iterations, force evaluations = 12 65

MPI task timing breakdown:
Section |  min time  |  avg time  |  max time  |%varavg| %total
---------------------------------------------------------------
Pair    | 0.069288   | 0.074229   | 0.08167    |   1.2 | 36.78
Kspace  | 0.11193    | 0.11467    | 0.11708    |   0.5 | 56.82
Neigh   | 0          | 0          | 0          |   0.0 |  0.00
Comm    | 0.0063255  | 0.011925   | 0.014924   |   2.3 |  5.91
Output  | 0          | 0          | 0          |   0.0 |  0.00
Modify  | 0          | 0          | 0          |   0.0 |  0.00
Other   |            | 0.0009715  |            |       |  0.48

Nlocal:    84 ave 87 max 79 min
Histogram: 1 0 0 0 0 2 4 4 0 1
Nghost:    2602.5 ave 2628 max 2586 min
Histogram: 4 1 1 0 1 1 2 0 0 2
Neighs:    18627.1 ave 19325 max 17367 min
[...]
                  kxmax kymax kzmax  = 10 10 10
Setting up cg style minimization ...
  Unit style: metal
Memory usage per processor = 4.56156 Mbytes
Step Temp E_pair E_mol TotEng Press 
     993           10    -18274.21            0   -18272.908   -7098.2436 
    1000           10   -18274.232            0    -18272.93   -7069.1166 
    1002           10   -18274.232            0   -18272.931   -7059.9817 
Loop time of 0.184077 on 12 procs for 9 steps with 1008 atoms

99.9% CPU use with 12 MPI tasks x no OpenMP threads

Minimization stats:
  Stopping criterion = linesearch alpha is zero
  Energy initial, next-to-last, final = 
        -18274.2099712     -18274.2321778     -18274.2321778
  Force two-norm initial, final = 0.827493 0.135981
  Force max component initial, final = 0.0724174 0.0115243
  Final line search alpha, max atom move = 4.76837e-07 5.49521e-09
  Iterations, force evaluations = 9 59

MPI task timing breakdown:
Section |  min time  |  avg time  |  max time  |%varavg| %total
---------------------------------------------------------------
Pair    | 0.062984   | 0.067402   | 0.074243   |   1.3 | 36.62
Kspace  | 0.10166    | 0.10429    | 0.10657    |   0.5 | 56.66
Neigh   | 0          | 0          | 0          |   0.0 |  0.00
Comm    | 0.0059853  | 0.011432   | 0.014357   |   2.3 |  6.21
Output  | 2.3842e-05 | 2.5253e-05 | 3.1948e-05 |   0.0 |  0.01
Modify  | 0          | 0          | 0          |   0.0 |  0.00
Other   |            | 0.0009255  |            |       |  0.50

Nlocal:    84 ave 88 max 79 min
Histogram: 1 0 0 1 2 2 5 0 0 1
Nghost:    2602.83 ave 2628 max 2585 min
Histogram: 3 1 2 0 1 1 1 1 0 2
Neighs:    18626.8 ave 19544 max 17362 min
Histogram: 1 0 0 0 3 3 1 3 0 1

Total # of neighbors = 223522
Ave neighs/atom = 221.748
Neighbor list builds = 0
Dangerous builds = 0
CR_UPDATE- 23.300680	23.300680	23.300680	0.000000	0.000000	0.000000
For k = 6, applying strain of 1.005
Changing box ...
  triclinic box = (0 0 0) to (23.3007 23.3007 23.3007) with tilt (0 0.116503 0)
WARNING: Resetting reneighboring criteria during minimization (../min.cpp:168)
Ewald initialization ...
  G vector (1/distance) = 0.365055
  estimated absolute RMS force accuracy = 1.94166e-05
  estimated relative force accuracy = 1.34841e-06
  KSpace vectors: actual max1d max3d = 2079 10 4630
                  kxmax kymax kzmax  = 10 10 10
Setting up cg style minimization ...
  Unit style: metal
Memory usage per processor = 4.56156 Mbytes
Step Temp E_pair E_mol TotEng Press 
    1002           10    -18274.14            0   -18272.838   -7102.1494 
    1014           10   -18274.193            0   -18272.892   -7038.1974 
Loop time of 0.318731 on 12 procs for 12 steps with 1008 atoms

99.7% CPU use with 12 MPI tasks x no OpenMP threads

Minimization stats:
  Stopping criterion = linesearch alpha is zero
  Energy initial, next-to-last, final = 
        -18274.1400885     -18274.1934806     -18274.1934806
  Force two-norm initial, final = 1.24161 0.151644
  Force max component initial, final = 0.108612 0.0131234
  Final line search alpha, max atom move = 4.76837e-07 6.25772e-09
  Iterations, force evaluations = 12 103

MPI task timing breakdown:
Section |  min time  |  avg time  |  max time  |%varavg| %total
---------------------------------------------------------------
Pair    | 0.10781    | 0.11633    | 0.1292     |   1.8 | 36.50
Kspace  | 0.17621    | 0.18135    | 0.18584    |   0.7 | 56.90
Neigh   | 0          | 0          | 0          |   0.0 |  0.00
Comm    | 0.010225   | 0.019588   | 0.024681   |   3.0 |  6.15
Output  | 0          | 0          | 0          |   0.0 |  0.00
Modify  | 0          | 0          | 0          |   0.0 |  0.00
Other   |            | 0.001457   |            |       |  0.46

Nlocal:    84 ave 88 max 79 min
Histogram: 1 0 0 1 2 2 5 0 0 1
Nghost:    2602.83 ave 2628 max 2585 min
Histogram: 3 1 2 0 1 1 1 1 0 2
Neighs:    18627.5 ave 19543 max 17362 min
Histogram: 1 0 0 0 3 3 1 3 0 1

Total # of neighbors = 223530
Ave neighs/atom = 221.756
Neighbor list builds = 0
Dangerous builds = 0
CR_UPDATE- 23.300680	23.300680	23.300680	0.000000	0.000000	0.000000
For k = 0, applying strain of 0.995
Changing box ...
  triclinic box = (0 0 0) to (23.3007 23.3007 23.3007) with tilt (0 0 -0.116503)
WARNING: Resetting reneighboring criteria during minimization (../min.cpp:168)
Ewald initialization ...
  G vector (1/distance) = 0.365055
  estimated absolute RMS force accuracy = 1.94166e-05
  estimated relative force accuracy = 1.34841e-06
  KSpace vectors: actual max1d max3d = 2079 10 4630
                  kxmax kymax kzmax  = 10 10 10
Setting up cg style minimization ...
  Unit style: metal
Memory usage per processor = 4.56156 Mbytes
Step Temp E_pair E_mol TotEng Press 
    1014           10   -18274.201            0   -18272.899   -7051.8175 
    1034           10   -18274.266            0   -18272.964   -7079.8038 
Loop time of 0.252904 on 12 procs for 20 steps with 1008 atoms

99.9% CPU use with 12 MPI tasks x no OpenMP threads

Minimization stats:
  Stopping criterion = linesearch alpha is zero
  Energy initial, next-to-last, final = 
        -18274.2006921     -18274.2661048     -18274.2661048
  Force two-norm initial, final = 1.25831 0.13099
  Force max component initial, final = 0.121689 0.0116549
  Final line search alpha, max atom move = 4.76837e-07 5.55751e-09
  Iterations, force evaluations = 20 81

MPI task timing breakdown:
Section |  min time  |  avg time  |  max time  |%varavg| %total
---------------------------------------------------------------
Pair    | 0.085724   | 0.091969   | 0.10214    |   1.6 | 36.37
Kspace  | 0.13958    | 0.14341    | 0.14714    |   0.6 | 56.70
Neigh   | 0          | 0          | 0          |   0.0 |  0.00
Comm    | 0.0082548  | 0.016193   | 0.020412   |   2.8 |  6.40
Output  | 0          | 0          | 0          |   0.0 |  0.00
Modify  | 0          | 0          | 0          |   0.0 |  0.00
Other   |            | 0.001336   |            |       |  0.53

Nlocal:    84 ave 88 max 79 min
Histogram: 1 0 0 1 2 2 5 0 0 1
Nghost:    2603.5 ave 2628 max 2586 min
Histogram: 3 2 1 0 0 2 1 1 0 2
Neighs:    18629.2 ave 19546 max 17368 min
Histogram: 1 0 0 0 3 3 1 3 0 1

Total # of neighbors = 223550
Ave neighs/atom = 221.776
Neighbor list builds = 0
Dangerous builds = 0
CR_UPDATE- 23.300680	23.300680	23.300680	0.000000	0.000000	0.000000
For k = 1, applying strain of 0.996667
Changing box ...
  triclinic box = (0 0 0) to (23.3007 23.3007 23.3007) with tilt (0 0 -0.077661)
WARNING: Resetting reneighboring criteria during minimization (../min.cpp:168)
Ewald initialization ...
  G vector (1/distance) = 0.365055
  estimated absolute RMS force accuracy = 1.94166e-05
  estimated relative force accuracy = 1.34841e-06
  KSpace vectors: actual max1d max3d = 2081 10 4630
                  kxmax kymax kzmax  = 10 10 10
Setting up cg style minimization ...
  Unit style: metal
Memory usage per processor = 4.56156 Mbytes
Step Temp E_pair E_mol TotEng Press 
    1034           10   -18274.249            0   -18272.947   -7064.1638 
    1049           10   -18274.278            0   -18272.976   -7035.8303 
Loop time of 0.213485 on 12 procs for 15 steps with 1008 atoms

99.8% CPU use with 12 MPI tasks x no OpenMP threads

Minimization stats:
  Stopping criterion = linesearch alpha is zero
  Energy initial, next-to-last, final = 
         -18274.249046     -18274.2777188     -18274.2777188
  Force two-norm initial, final = 0.838814 0.111742
  Force max component initial, final = 0.0811126 0.0159829
  Final line search alpha, max atom move = 9.53674e-07 1.52425e-08
  Iterations, force evaluations = 15 69

MPI task timing breakdown:
Section |  min time  |  avg time  |  max time  |%varavg| %total
---------------------------------------------------------------
Pair    | 0.072763   | 0.078305   | 0.085841   |   1.3 | 36.68
Kspace  | 0.11813    | 0.12145    | 0.12392    |   0.5 | 56.89
Neigh   | 0          | 0          | 0          |   0.0 |  0.00
Comm    | 0.0068452  | 0.012688   | 0.015904   |   2.3 |  5.94
Output  | 0          | 0          | 0          |   0.0 |  0.00
Modify  | 0          | 0          | 0          |   0.0 |  0.00
Other   |            | 0.001046   |            |       |  0.49

Nlocal:    84 ave 88 max 79 min
Histogram: 1 0 0 1 2 2 5 0 0 1
Nghost:    2602.83 ave 2628 max 2585 min
Histogram: 3 1 2 0 1 1 1 1 0 2
Neighs:    18628.1 ave 19551 max 17367 min
Histogram: 1 0 0 0 3 3 1 3 0 1

Total # of neighbors = 223537
Ave neighs/atom = 221.763
Neighbor list builds = 0
Dangerous builds = 0
CR_UPDATE- 23.300680	23.300680	23.300680	0.000000	0.000000	0.000000
For k = 2, applying strain of 0.998333
Changing box ...
  triclinic box = (0 0 0) to (23.3007 23.3007 23.3007) with tilt (0 0 -0.038842)
WARNING: Resetting reneighboring criteria during minimization (../min.cpp:168)
Ewald initialization ...
  G vector (1/distance) = 0.365055
  estimated absolute RMS force accuracy = 1.94166e-05
  estimated relative force accuracy = 1.34841e-06
  KSpace vectors: actual max1d max3d = 2082 10 4630
                  kxmax kymax kzmax  = 10 10 10
Setting up cg style minimization ...
  Unit style: metal
Memory usage per processor = 4.56156 Mbytes
Step Temp E_pair E_mol TotEng Press 
    1049           10    -18274.27            0   -18272.969    -7071.941 
    1050           10   -18274.273            0   -18272.971    -7063.205 
    1055           10   -18274.276            0   -18272.975   -7031.4991 
Loop time of 0.184265 on 12 procs for 6 steps with 1008 atoms

100.1% CPU use with 12 MPI tasks x no OpenMP threads

Minimization stats:
  Stopping criterion = linesearch alpha is zero
  Energy initial, next-to-last, final = 
        -18274.2702086     -18274.2761877     -18274.2761877
  Force two-norm initial, final = 0.419667 0.120367
  Force max component initial, final = 0.0405806 0.00973365
  Final line search alpha, max atom move = 4.76837e-07 4.64136e-09
  Iterations, force evaluations = 6 59

MPI task timing breakdown:
Section |  min time  |  avg time  |  max time  |%varavg| %total
---------------------------------------------------------------
Pair    | 0.062288   | 0.067052   | 0.075065   |   1.4 | 36.39
Kspace  | 0.10272    | 0.1051     | 0.10742    |   0.5 | 57.04
Neigh   | 0          | 0          | 0          |   0.0 |  0.00
Comm    | 0.0056839  | 0.011284   | 0.014264   |   2.3 |  6.12
Output  | 1.9073e-05 | 2.0365e-05 | 2.408e-05  |   0.0 |  0.01
Modify  | 0          | 0          | 0          |   0.0 |  0.00
Other   |            | 0.000804   |            |       |  0.44

Nlocal:    84 ave 88 max 79 min
Histogram: 1 0 0 1 2 2 5 0 0 1
Nghost:    2602.83 ave 2628 max 2585 min
Histogram: 3 1 2 0 1 1 1 1 0 2
Neighs:    18629.2 ave 19555 max 17365 min
Histogram: 1 0 0 0 3 3 1 3 0 1

Total # of neighbors = 223550
Ave neighs/atom = 221.776
Neighbor list builds = 0
Dangerous builds = 0
CR_UPDATE- 23.300680	23.300680	23.300680	0.000000	0.000000	0.000000
For k = 3, applying strain of 1
Changing box ...
  triclinic box = (0 0 0) to (23.3007 23.3007 23.3007) with tilt (0 0 0)
WARNING: Resetting reneighboring criteria during minimization (../min.cpp:168)
Ewald initialization ...
  G vector (1/distance) = 0.365055
  estimated absolute RMS force accuracy = 1.94166e-05
  estimated relative force accuracy = 1.34841e-06
  KSpace vectors: actual max1d max3d = 2084 10 4630
                  kxmax kymax kzmax  = 10 10 10
Setting up cg style minimization ...
  Unit style: metal
Memory usage per processor = 4.56156 Mbytes
Step Temp E_pair E_mol TotEng Press 
    1055           10   -18274.266            0   -18272.964   -7075.5282 
    1057           10   -18274.266            0   -18272.964   -7073.1967 
Loop time of 0.0798814 on 12 procs for 2 steps with 1008 atoms

99.8% CPU use with 12 MPI tasks x no OpenMP threads

Minimization stats:
  Stopping criterion = linesearch alpha is zero
  Energy initial, next-to-last, final = 
        -18274.2656438     -18274.2656648     -18274.2656648
  Force two-norm initial, final = 0.00480711 0.00321821
  Force max component initial, final = 0.000370914 0.00031484
  Final line search alpha, max atom move = 0.000976562 3.07461e-07
  Iterations, force evaluations = 2 25

MPI task timing breakdown:
Section |  min time  |  avg time  |  max time  |%varavg| %total
---------------------------------------------------------------
Pair    | 0.026936   | 0.028987   | 0.032389   |   0.9 | 36.29
Kspace  | 0.044433   | 0.045467   | 0.046401   |   0.3 | 56.92
Neigh   | 0          | 0          | 0          |   0.0 |  0.00
Comm    | 0.0025022  | 0.0050524  | 0.0063729  |   1.6 |  6.32
Output  | 0          | 0          | 0          |   0.0 |  0.00
Modify  | 0          | 0          | 0          |   0.0 |  0.00
Other   |            | 0.0003749  |            |       |  0.47

Nlocal:    84 ave 88 max 79 min
Histogram: 1 0 0 1 2 2 5 0 0 1
Nghost:    2602.83 ave 2628 max 2585 min
Histogram: 3 1 2 0 1 1 1 1 0 2
Neighs:    18630.6 ave 19559 max 17364 min
Histogram: 1 0 0 0 3 3 1 3 0 1

Total # of neighbors = 223567
Ave neighs/atom = 221.793
Neighbor list builds = 0
Dangerous builds = 0
CR_UPDATE- 23.300680	23.300680	23.300680	0.000000	0.000000	0.000000
For k = 4, applying strain of 1.00167
Changing box ...
  triclinic box = (0 0 0) to (23.3007 23.3007 23.3007) with tilt (0 0 0.038842)
WARNING: Resetting reneighboring criteria during minimization (../min.cpp:168)
Ewald initialization ...
  G vector (1/distance) = 0.365055
  estimated absolute RMS force accuracy = 1.94166e-05
  estimated relative force accuracy = 1.34841e-06
  KSpace vectors: actual max1d max3d = 2082 10 4630
                  kxmax kymax kzmax  = 10 10 10
Setting up cg style minimization ...
  Unit style: metal
Memory usage per processor = 4.56156 Mbytes
Step Temp E_pair E_mol TotEng Press 
    1057           10   -18274.234            0   -18272.932    -7074.461 
    1066           10   -18274.241            0   -18272.939   -7098.2287 
Loop time of 0.184173 on 12 procs for 9 steps with 1008 atoms

99.9% CPU use with 12 MPI tasks x no OpenMP threads

Minimization stats:
  Stopping criterion = linesearch alpha is zero
  Energy initial, next-to-last, final = 
         -18274.234025       -18274.24054       -18274.24054
  Force two-norm initial, final = 0.419331 0.0911365
  Force max component initial, final = 0.0404811 0.0118557
  Final line search alpha, max atom move = 9.53674e-07 1.13065e-08
  Iterations, force evaluations = 9 59

MPI task timing breakdown:
Section |  min time  |  avg time  |  max time  |%varavg| %total
---------------------------------------------------------------
Pair    | 0.062701   | 0.066865   | 0.07489    |   1.4 | 36.31
Kspace  | 0.10163    | 0.10473    | 0.10758    |   0.5 | 56.86
Neigh   | 0          | 0          | 0          |   0.0 |  0.00
Comm    | 0.0057211  | 0.011723   | 0.014806   |   2.5 |  6.37
Output  | 0          | 0          | 0          |   0.0 |  0.00
Modify  | 0          | 0          | 0          |   0.0 |  0.00
Other   |            | 0.0008581  |            |       |  0.47

Nlocal:    84 ave 88 max 79 min
Histogram: 1 0 0 1 2 2 5 0 0 1
Nghost:    2602.83 ave 2628 max 2585 min
Histogram: 3 1 2 0 1 1 1 1 0 2
Neighs:    18629.8 ave 19553 max 17358 min
Histogram: 1 0 0 0 3 3 1 3 0 1

Total # of neighbors = 223558
Ave neighs/atom = 221.784
Neighbor list builds = 0
Dangerous builds = 0
CR_UPDATE- 23.300680	23.300680	23.300680	0.000000	0.000000	0.000000
For k = 5, applying strain of 1.00333
Changing box ...
  triclinic box = (0 0 0) to (23.3007 23.3007 23.3007) with tilt (0 0 0.077661)
WARNING: Resetting reneighboring criteria during minimization (../min.cpp:168)
Ewald initialization ...
  G vector (1/distance) = 0.365055
  estimated absolute RMS force accuracy = 1.94166e-05
  estimated relative force accuracy = 1.34841e-06
  KSpace vectors: actual max1d max3d = 2081 10 4630
                  kxmax kymax kzmax  = 10 10 10
Setting up cg style minimization ...
  Unit style: metal
Memory usage per processor = 4.56156 Mbytes
Step Temp E_pair E_mol TotEng Press 
    1066           10   -18274.173            0   -18272.872   -7068.3543 
    1078           10   -18274.201            0   -18272.899   -7112.7683 
Loop time of 0.203229 on 12 procs for 12 steps with 1008 atoms

99.8% CPU use with 12 MPI tasks x no OpenMP threads

Minimization stats:
  Stopping criterion = linesearch alpha is zero
  Energy initial, next-to-last, final = 
        -18274.1733369     -18274.2007205     -18274.2007205
  Force two-norm initial, final = 0.838547 0.143009
  Force max component initial, final = 0.0809548 0.0127012
  Final line search alpha, max atom move = 4.76837e-07 6.05641e-09
  Iterations, force evaluations = 12 65

MPI task timing breakdown:
Section |  min time  |  avg time  |  max time  |%varavg| %total
---------------------------------------------------------------
Pair    | 0.069156   | 0.074132   | 0.082868   |   1.4 | 36.48
Kspace  | 0.11291    | 0.11587    | 0.11887    |   0.5 | 57.02
Neigh   | 0          | 0          | 0          |   0.0 |  0.00
Comm    | 0.0064833  | 0.012252   | 0.015399   |   2.3 |  6.03
Output  | 0          | 0          | 0          |   0.0 |  0.00
Modify  | 0          | 0          | 0          |   0.0 |  0.00
Other   |            | 0.0009724  |            |       |  0.48

Nlocal:    84 ave 88 max 79 min
Histogram: 1 0 0 1 2 2 5 0 0 1
Nghost:    2602.83 ave 2628 max 2585 min
Histogram: 3 1 2 0 1 1 1 1 0 2
Neighs:    18630.2 ave 19558 max 17349 min
Histogram: 1 0 0 0 3 3 1 3 0 1

Total # of neighbors = 223562
Ave neighs/atom = 221.788
Neighbor list builds = 0
Dangerous builds = 0
CR_UPDATE- 23.300680	23.300680	23.300680	0.000000	0.000000	0.000000
For k = 6, applying strain of 1.005
Changing box ...
  triclinic box = (0 0 0) to (23.3007 23.3007 23.3007) with tilt (0 0 0.116503)
WARNING: Resetting reneighboring criteria during minimization (../min.cpp:168)
Ewald initialization ...
  G vector (1/distance) = 0.365055
  estimated absolute RMS force accuracy = 1.94166e-05
  estimated relative force accuracy = 1.34841e-06
  KSpace vectors: actual max1d max3d = 2079 10 4630
                  kxmax kymax kzmax  = 10 10 10
Setting up cg style minimization ...
  Unit style: metal
Memory usage per processor = 4.56156 Mbytes
Step Temp E_pair E_mol TotEng Press 
    1078           10   -18274.087            0   -18272.785   -7058.0258 
    1100           10   -18274.156            0   -18272.855   -6967.6827 
    1101           10   -18274.156            0   -18272.855   -6967.6827 
Loop time of 0.269532 on 12 procs for 23 steps with 1008 atoms

99.9% CPU use with 12 MPI tasks x no OpenMP threads

Minimization stats:
  Stopping criterion = linesearch alpha is zero
  Energy initial, next-to-last, final = 
        -18274.0871446     -18274.1563737     -18274.1563737
  Force two-norm initial, final = 1.25803 0.148849
  Force max component initial, final = 0.121443 0.012391
  Final line search alpha, max atom move = 4.76837e-07 5.90848e-09
  Iterations, force evaluations = 23 87

MPI task timing breakdown:
Section |  min time  |  avg time  |  max time  |%varavg| %total
---------------------------------------------------------------
Pair    | 0.092102   | 0.099022   | 0.10913    |   1.6 | 36.74
Kspace  | 0.14965    | 0.15258    | 0.15553    |   0.5 | 56.61
Neigh   | 0          | 0          | 0          |   0.0 |  0.00
Comm    | 0.0084894  | 0.016527   | 0.020834   |   2.8 |  6.13
Output  | 2.4796e-05 | 2.569e-05  | 3.5048e-05 |   0.1 |  0.01
Modify  | 0          | 0          | 0          |   0.0 |  0.00
Other   |            | 0.001375   |            |       |  0.51

Nlocal:    84 ave 88 max 79 min
Histogram: 1 0 0 1 2 2 5 0 0 1
Nghost:    2603.5 ave 2628 max 2586 min
Histogram: 3 2 1 0 0 2 1 1 0 2
Neighs:    18629.2 ave 19563 max 17352 min
Histogram: 1 0 0 0 3 3 1 3 0 1

Total # of neighbors = 223551
Ave neighs/atom = 221.777
Neighbor list builds = 0
Dangerous builds = 0
Total wall time: 0:01:28
Done.
