ITEM: TIMESTEP
0
ITEM: NUMBER OF ATOMS
1008
ITEM: BOX BOUNDS xy xz yz pp pp pp
0.0 23.3006801605 0.0
0.0 23.3006801605 0.0
0.0 23.3006801605 0.0
ITEM: ATOMS id type x y z
1 1 4.462904930114746 -6.834992408752441 -8.426523208618164 
2 1 0.042624417692423 6.149942398071289 -1.455388784408569 
3 1 -11.102583885192871 5.612019538879395 -3.404316186904907 
4 1 -1.448959946632385 3.145522117614746 -1.466455698013306 
5 1 6.039866447448730 -11.602451324462891 -11.540710449218750 
6 1 0.779329776763916 -3.377208709716797 10.460680961608887 
7 1 7.798321723937988 0.201806813478470 -3.472820997238159 
8 1 -4.428542613983154 -1.195635914802551 -4.840947151184082 
9 1 -9.717066764831543 10.376536369323730 -1.630582332611084 
10 1 5.053675174713135 -0.323353648185730 -9.847105026245117 
11 1 9.575049400329590 2.056372404098511 7.090558528900146 
12 1 9.382170677185059 -3.065141677856445 5.081743717193604 
13 1 0.522693753242493 3.775091409683228 10.024661064147949 
14 1 -6.860098838806152 4.460688114166260 -1.401490092277527 
15 1 -5.237472057342529 -4.021239757537842 5.600552558898926 
16 1 2.786736011505127 -8.920790672302246 4.396719455718994 
17 1 -10.381667137145996 3.301016569137573 5.672719478607178 
18 1 -9.751586914062500 2.283447027206421 -2.425874233245850 
19 1 -0.977665424346924 -1.495407104492188 5.013048171997070 
20 1 -10.229201316833496 -1.985953569412231 8.383596420288086 
21 1 -11.321249961853027 -5.925449371337891 5.450519084930420 
22 1 0.168088808655739 -6.956227779388428 -3.239713907241821 
23 1 -5.732488155364990 -7.098868370056152 7.642776966094971 
24 1 7.487152576446533 4.769681453704834 8.820121765136719 
25 1 7.554214477539062 -2.597254514694214 9.202971458435059 
26 1 -5.535440444946289 6.586569309234619 6.871728420257568 
27 1 7.975062370300293 -10.881184577941895 2.438872337341309 
28 1 0.278911650180817 10.277756690979004 5.932122230529785 
29 1 -2.719127178192139 -11.270218849182129 -4.354570865631104 
30 1 -6.040247917175293 3.166211843490601 -7.590847015380859 
31 1 -1.526803612709045 5.249480247497559 -7.596399784088135 
32 1 -11.403429985046387 6.758155822753906 6.296779155731201 
33 1 4.513973712921143 5.997106552124023 1.219783782958984 
34 1 2.124870061874390 3.231213331222534 -0.033110029995441 
35 1 0.173999667167664 -1.401535153388977 -5.781203746795654 
36 1 -10.472049713134766 -11.382825851440430 10.288480758666992 
37 1 -11.471754074096680 -0.294492810964584 5.379283428192139 
38 1 -4.707175731658936 1.282135725021362 -1.584349751472473 
39 1 4.502206802368164 -4.029974937438965 -6.284946441650391 
40 1 -7.382097721099854 -4.673543453216553 2.691574096679688 
41 1 -3.334040403366089 -7.560462474822998 -4.549472808837891 
42 1 3.232683897018433 -10.240375518798828 -10.008069038391113 
43 1 -8.545508384704590 5.346766948699951 -9.104079246520996 
44 1 -1.400419831275940 -9.372298240661621 -0.822572112083435 
45 1 -8.505639076232910 10.565357208251953 7.462968826293945 
46 1 0.885599017143250 9.376334190368652 9.551457405090332 
47 1 7.407809257507324 -9.129790306091309 -4.367526054382324 
48 1 5.188709259033203 -8.892286300659180 8.802191734313965 
49 1 3.688604593276978 11.567144393920898 -5.667703628540039 
50 1 -10.905662536621094 -6.239954948425293 2.034282684326172 
51 1 -5.890582561492920 11.109568595886230 4.836793899536133 
52 1 -10.193759918212891 -0.641514778137207 -0.207614734768867 
53 1 -1.991647720336914 0.963927507400513 1.019977211952209 
54 1 -1.552097678184509 -0.515655815601349 -2.359871625900269 
55 1 4.280867099761963 -3.965335607528687 10.003312110900879 
56 1 2.964451313018799 8.218663215637207 -4.294524192810059 
57 1 6.916591167449951 -5.711622238159180 -10.795054435729980 
58 1 3.676854133605957 5.482618808746338 -1.969345331192017 
59 1 3.846595525741577 9.482641220092773 -8.991256713867188 
60 1 0.605299711227417 5.328912258148193 2.834100484848022 
61 1 2.212710857391357 1.150220036506653 -7.517432689666748 
62 1 8.588872909545898 7.671721458435059 -6.119227409362793 
63 1 -1.681958317756653 -5.737262248992920 -0.208897292613983 
64 1 -5.053511619567871 -6.840831279754639 1.147337079048157 
65 1 8.669929504394531 6.140871047973633 -2.896801233291626 
66 1 -0.002659345278516 -3.631012678146362 -8.827908515930176 
67 1 5.530317306518555 -3.922718524932861 1.773974895477295 
68 1 9.594807624816895 7.442287445068359 10.917654991149902 
69 1 -11.597407341003418 -9.770215034484863 -2.246916770935059 
70 1 -7.013799667358398 -3.041666030883789 -5.995440006256104 
71 1 -0.971477150917053 9.566631317138672 -6.255476951599121 
72 1 3.796693563461304 1.046410083770752 2.446182250976562 
73 1 -7.695149421691895 0.438517749309540 -4.869918823242188 
74 1 -3.739414215087891 4.725434303283691 -10.474168777465820 
75 1 -10.412550926208496 -5.798584938049316 11.001087188720703 
76 1 3.420006990432739 10.594171524047852 3.757691860198975 
77 1 3.145909070968628 10.128912925720215 -1.596239805221558 
78 1 10.661811828613281 11.003018379211426 0.315120726823807 
79 1 4.271685123443604 -9.894581794738770 -2.729875326156616 
80 1 9.947686195373535 0.757470190525055 -9.604228973388672 
81 1 -9.814759254455566 1.730270624160767 8.709792137145996 
82 1 2.749955654144287 -6.087740421295166 -0.487815290689468 
83 1 -2.342626094818115 9.413132667541504 0.244125470519066 
84 1 1.148798942565918 -0.515199601650238 -10.537462234497070 
85 1 -7.989243984222412 -3.302757978439331 10.935553550720215 
86 1 -8.333892822265625 9.537706375122070 1.711500763893127 
87 1 7.749953269958496 8.349110603332520 8.002624511718750 
88 1 -2.849351167678833 1.712863802909851 -6.582645416259766 
89 1 -2.827156543731689 5.120504856109619 4.776241779327393 
90 1 9.398173332214355 -4.153769969940186 -8.602528572082520 
91 1 3.372283458709717 11.334444046020508 7.186977386474609 
92 1 3.451862573623657 1.586644411087036 -3.133999347686768 
93 1 -7.214800357818604 7.855284690856934 9.788730621337891 
94 1 -8.512954711914062 7.649104595184326 4.935945987701416 
95 1 -8.488253593444824 9.641359329223633 -10.712778091430664 
96 1 5.732168674468994 4.792638778686523 -9.744168281555176 
97 1 -2.518976211547852 -10.002866744995117 9.501285552978516 
98 1 10.066921234130859 -7.321568012237549 -0.788691341876984 
99 1 0.643484711647034 -7.054944515228271 9.647420883178711 
100 1 -7.072121620178223 8.213678359985352 -1.982241868972778 
101 1 4.085876941680908 -0.894495487213135 5.445832729339600 
102 1 6.414288520812988 2.155018806457520 10.893407821655273 
103 1 0.401878803968430 -9.605839729309082 7.231253623962402 
104 1 -10.217989921569824 1.105501294136047 -10.854504585266113 
105 1 7.383138179779053 11.187722206115723 -5.607287406921387 
106 1 -9.881834030151367 -1.843329668045044 -3.827790737152100 
107 1 -4.716320037841797 -4.771444320678711 10.487271308898926 
108 1 -1.710032105445862 6.243583202362061 -4.425566196441650 
109 1 -10.609204292297363 8.109550476074219 -8.252287864685059 
110 1 -1.499052166938782 6.870603084564209 10.589998245239258 
111 1 -1.976487636566162 8.022625923156738 -9.447204589843750 
112 1 7.833477020263672 -7.377923965454102 3.821375370025635 
113 1 11.025911331176758 0.567816138267517 -4.765157699584961 
114 1 11.546381950378418 9.177264213562012 -4.532076835632324 
115 1 6.634239196777344 3.586731433868408 -3.184780836105347 
116 1 -8.239105224609375 -7.658593177795410 4.613064289093018 
117 1 -2.019053697586060 -3.730130434036255 7.857932090759277 
118 1 -3.271657705307007 9.312335014343262 6.469910621643066 
119 1 3.715077638626099 -7.093250751495361 11.569329261779785 
120 1 11.253509521484375 9.587491989135742 8.673065185546875 
121 1 9.695835113525391 4.147598266601562 -5.743686676025391 
122 1 -6.361397266387939 11.338521003723145 -4.064141750335693 
123 1 11.019385337829590 4.427020072937012 9.296000480651855 
124 1 7.640826702117920 -11.327733993530273 8.622085571289062 
125 1 -7.176542758941650 0.410522609949112 11.208714485168457 
126 1 -9.902071952819824 1.514398694038391 2.686021566390991 
127 1 -10.806985855102539 2.709998369216919 -7.631045818328857 
128 1 -3.145679712295532 -0.324780315160751 7.773634910583496 
129 1 3.025204896926880 -6.283722877502441 6.893414020538330 
130 1 -3.641244649887085 -4.566947460174561 -7.844052791595459 
131 1 -3.685914039611816 6.316861629486084 -1.426422715187073 
132 1 4.941232204437256 -8.028668403625488 1.397076487541199 
133 1 -5.663177490234375 7.680351734161377 -9.485412597656250 
134 1 -8.037150382995605 0.300519049167633 -8.378148078918457 
135 1 7.331367492675781 9.655611991882324 -8.955042839050293 
136 1 -8.244940757751465 -8.671963691711426 9.245130538940430 
137 1 -2.056585550308228 -3.983813285827637 -4.321659088134766 
138 1 -7.307602405548096 -0.939577817916870 1.590023636817932 
139 1 -5.717368125915527 -10.906030654907227 7.947742938995361 
140 1 -4.410961151123047 3.689109802246094 -3.763143301010132 
141 1 8.554538726806641 -8.931095123291016 -10.604169845581055 
142 1 1.484466075897217 8.329077720642090 1.241268515586853 
143 1 0.266274243593216 1.859544396400452 3.969615221023560 
144 1 8.763965606689453 10.846538543701172 -2.332079648971558 
145 1 7.274676322937012 -9.358560562133789 -0.751284658908844 
146 1 -11.435328483581543 -2.460492372512817 -11.346821784973145 
147 1 -1.932407140731812 1.392585873603821 10.925339698791504 
148 1 5.562169551849365 0.977023541927338 -0.551853299140930 
149 1 -4.690683364868164 -5.070970535278320 -2.066415786743164 
150 1 6.363086223602295 -2.357717037200928 -1.440445899963379 
151 1 9.653917312622070 10.982614517211914 -11.421808242797852 
152 1 0.535352408885956 -3.095926046371460 -1.178235530853271 
153 1 -1.408806681632996 -2.752577781677246 1.898059368133545 
154 1 5.120160102844238 7.013622760772705 -6.870001316070557 
155 1 9.590300559997559 -1.177000403404236 0.108520820736885 
156 1 -6.473218917846680 2.807561635971069 1.600622296333313 
157 1 5.754343986511230 1.769216060638428 7.391045570373535 
158 1 9.653276443481445 0.220392584800720 10.371696472167969 
159 1 -7.521080017089844 6.039958000183105 1.914987206459045 
160 1 -3.801636457443237 4.286663532257080 9.196133613586426 
161 1 -7.024202823638916 0.370004266500473 5.001050949096680 
162 1 -4.088089466094971 9.900741577148438 10.110138893127441 
163 1 11.595092773437500 -6.986754894256592 -9.196557998657227 
164 1 -1.660113573074341 -6.237997055053711 -10.901647567749023 
165 1 7.736220359802246 4.187942504882812 0.190948948264122 
166 1 -7.489334106445312 10.608119010925293 -7.219871520996094 
167 1 -4.821458339691162 -9.061414718627930 -1.737169504165649 
168 1 8.126357078552246 -2.233727693557739 -10.479189872741699 
169 1 2.128025770187378 -8.645326614379883 -6.128237247467041 
170 1 -0.174680009484291 9.574831962585449 -2.808944702148438 
171 1 7.359751701354980 -5.855058670043945 8.869008064270020 
172 1 -8.553309440612793 7.417359352111816 -5.524928569793701 
173 1 3.381104469299316 -2.214440345764160 -3.666173458099365 
174 1 2.936357498168945 -5.701026439666748 3.229307889938354 
175 1 -10.918946266174316 -9.569819450378418 6.902348518371582 
176 1 -4.970069885253906 6.328668117523193 -6.125342369079590 
177 1 9.368802070617676 -4.666729450225830 1.664387226104736 
178 1 4.914690494537354 3.966183662414551 4.440888404846191 
179 1 6.198594570159912 -10.025246620178223 -7.858831405639648 
180 1 -11.279284477233887 4.589468002319336 -10.821400642395020 
181 1 -11.131958007812500 -1.832723617553711 -7.739354133605957 
182 1 2.066859722137451 -10.126176834106445 0.264956742525101 
183 1 4.036221027374268 7.906001091003418 8.098900794982910 
184 1 -4.085715770721436 -8.995341300964355 -10.620433807373047 
185 1 -7.071630001068115 -6.884449958801270 -10.767416000366211 
186 1 0.251393914222717 1.743755340576172 -4.553647518157959 
187 1 -5.509208679199219 -2.039897441864014 -9.899027824401855 
188 1 9.338224411010742 7.689802646636963 0.313451588153839 
189 1 9.369187355041504 6.267748355865479 -8.897561073303223 
190 1 2.565966129302979 -10.417387008666992 10.106363296508789 
191 1 -6.783051490783691 4.183961391448975 11.043080329895020 
192 1 10.607319831848145 10.824258804321289 -7.332606792449951 
193 1 -0.432608544826508 11.337196350097656 2.214742183685303 
194 1 2.430448532104492 7.221324443817139 -11.182217597961426 
195 1 -9.262327194213867 -8.152465820312500 -4.232024669647217 
196 1 5.939474105834961 -4.474015712738037 5.555976867675781 
197 1 -8.150773048400879 -4.972990989685059 -3.369440078735352 
198 1 7.379261970520020 2.103328943252563 -8.049362182617188 
199 1 8.718557357788086 -1.182046175003052 -6.764711380004883 
200 1 11.060495376586914 -4.005268573760986 -1.705690264701843 
201 1 -9.533013343811035 -11.094218254089355 4.153796195983887 
202 1 3.618210077285767 -3.680220603942871 -10.019526481628418 
203 1 8.314177513122559 2.839213371276855 3.688122510910034 
204 1 -8.103537559509277 -7.280919075012207 -0.422247201204300 
205 1 -6.112728595733643 1.672718644142151 7.932463169097900 
206 1 11.185729026794434 5.227736473083496 3.220324754714966 
207 1 -6.669265270233154 -6.673042297363281 -6.360148906707764 
208 1 -2.429758071899414 -10.716924667358398 -8.135811805725098 
209 1 0.057003881782293 -7.853877067565918 2.258300542831421 
210 1 5.220684051513672 -0.382612109184265 -6.133194923400879 
211 1 5.905649662017822 7.940291881561279 11.381629943847656 
212 1 -4.288771629333496 -1.158776998519897 3.325174808502197 
213 1 2.647392511367798 5.869063377380371 5.990919113159180 
214 1 6.142570972442627 -10.207990646362305 5.539234638214111 
215 1 -1.450246334075928 11.277777671813965 -11.342881202697754 
216 1 6.669094085693359 8.947850227355957 1.917116522789001 
217 1 -2.013128042221069 -0.985444188117981 -8.917020797729492 
218 1 4.782774448394775 3.263284206390381 -6.284949302673340 
219 1 7.204313278198242 -6.101642131805420 -6.271895408630371 
220 1 -6.456338882446289 -1.677939772605896 8.210575103759766 
221 1 -0.995558619499207 8.147821426391602 3.770346641540527 
222 1 -2.107300996780396 -7.331182003021240 7.040573596954346 
223 2 -5.225905418395996 -1.331547975540161 1.547518610954285 
224 2 -9.078026771545410 8.533496856689453 -1.429869413375854 
225 2 10.476401329040527 9.508142471313477 4.612166404724121 
226 2 6.490815162658691 2.675431251525879 -0.338547468185425 
227 2 -4.507304668426514 -8.441758155822754 0.099324882030487 
228 2 8.982854843139648 -2.738600730895996 -5.529317855834961 
229 2 9.263161659240723 -8.595462799072266 -5.113777637481689 
230 2 -7.990736484527588 7.718660354614258 0.930460751056671 
231 2 -6.059279441833496 9.574189186096191 -3.212756395339966 
232 2 11.107024192810059 10.932540893554688 10.260483741760254 
233 2 -5.919055938720703 2.573344230651855 -0.546806216239929 
234 2 6.499641895294189 -10.700626373291016 3.756427049636841 
235 2 6.983288764953613 -4.232678890228271 -2.250409364700317 
236 2 10.798743247985840 -5.971462726593018 -2.266564846038818 
237 2 9.215231895446777 10.259013175964355 -8.572327613830566 
238 2 -5.582678318023682 -10.212579727172852 -10.622582435607910 
239 2 10.802217483520508 -3.416751384735107 -7.535530090332031 
240 2 -3.824413299560547 8.234474182128906 -9.838139533996582 
241 2 7.535641193389893 7.639124393463135 10.181284904479980 
242 2 5.882053375244141 3.499413013458252 -8.069503784179688 
243 2 -9.377040863037109 -10.495871543884277 -9.902238845825195 
244 2 -2.814404964447021 8.611367225646973 4.511943817138672 
245 2 -1.617370247840881 9.826708793640137 -10.088778495788574 
246 2 4.483950614929199 -10.269279479980469 -6.703008174896240 
247 2 5.952003955841064 -5.809997081756592 -9.151375770568848 
248 2 9.289815902709961 9.864152908325195 -0.587522685527802 
249 2 -6.191111564636230 -8.961240768432617 8.474628448486328 
250 2 -6.394227027893066 -11.117518424987793 -8.075625419616699 
251 2 -3.840289115905762 10.192145347595215 -1.084870696067810 
252 2 -11.316886901855469 -9.860368728637695 11.336233139038086 
253 2 1.810258984565735 3.912701845169067 8.451887130737305 
254 2 -9.503957748413086 1.642017006874084 -8.748623847961426 
255 2 -11.433655738830566 7.541996479034424 -3.556934356689453 
256 2 -6.918384075164795 10.895287513732910 1.881252527236938 
257 2 10.120132446289062 0.644200861454010 -0.617256522178650 
258 2 10.256700515747070 2.598227024078369 -4.498011112213135 
259 2 -11.579169273376465 8.350242614746094 7.291188240051270 
260 2 11.319214820861816 11.166474342346191 -10.374271392822266 
261 2 4.446969032287598 -3.683577060699463 -8.240825653076172 
262 2 4.397138118743896 5.011668205261230 2.841268777847290 
263 2 -0.097026653587818 -8.636480331420898 -2.038940191268921 
264 2 -3.240938186645508 -5.428696155548096 11.586081504821777 
265 2 -3.677782058715820 0.513385772705078 -0.042585223913193 
266 2 -3.550485610961914 -3.733373880386353 6.656988143920898 
267 2 0.131296858191490 -10.595412254333496 -0.691075861454010 
268 2 -4.396623134613037 8.224812507629395 -5.186100006103516 
269 2 9.158873558044434 7.310607433319092 -1.532699465751648 
270 2 -9.592620849609375 10.733133316040039 11.424527168273926 
271 2 -7.689974308013916 -8.535323143005371 -9.762335777282715 
272 2 2.693839311599731 -3.924636363983154 11.231897354125977 
273 2 -8.541453361511230 -6.349248409271240 -2.084408998489380 
274 2 10.104696273803711 -2.892733097076416 -10.319726943969727 
275 2 -9.154049873352051 -0.028937831521034 1.523205637931824 
276 2 5.322800159454346 -1.005785346031189 -0.513932883739471 
277 2 7.675325393676758 4.648747920989990 -1.782679557800293 
278 2 -3.394903898239136 -0.118794456124306 -5.979868888854980 
279 2 7.124916076660156 8.233033180236816 0.102854944765568 
280 2 -4.382974147796631 -10.823148727416992 1.333089709281921 
281 2 2.518282175064087 -9.791422843933105 -1.691923975944519 
282 2 -10.923431396484375 -3.521106719970703 -3.341935634613037 
283 2 -9.302435874938965 -8.771620750427246 7.642437458038330 
284 2 -8.481843948364258 1.212774038314819 3.949211120605469 
285 2 8.807498931884766 2.366190671920776 -9.609126091003418 
286 2 7.796662807464600 -2.698776483535767 11.051320075988770 
287 2 -2.396371841430664 -1.769204497337341 3.538288593292236 
288 2 9.341646194458008 3.058465957641602 -0.432540953159332 
289 2 -6.862539768218994 6.136012077331543 10.678927421569824 
290 2 -8.647058486938477 9.163290977478027 6.198569297790527 
291 2 11.057646751403809 7.175373554229736 -8.527376174926758 
292 2 1.922366976737976 5.962777137756348 -1.479305624961853 
293 2 -8.360940933227539 -3.160189151763916 -4.299684047698975 
294 2 -3.321598291397095 0.577627480030060 2.580700635910034 
295 2 -10.420661926269531 -5.609627723693848 -8.460777282714844 
296 2 -4.037505626678467 6.144082546234131 5.767914295196533 
297 2 3.525976419448853 -5.822857856750488 -9.960542678833008 
298 2 -0.934279084205627 11.525376319885254 -7.364101886749268 
299 2 -8.487928390502930 -9.941744804382324 -3.706261396408081 
300 2 -2.180964231491089 7.843943119049072 6.989795207977295 
301 2 1.794773697853088 -10.661572456359863 -6.519464492797852 
302 2 -8.413330078125000 1.937430143356323 -3.820655107498169 
303 2 -7.379477977752686 -5.742848396301270 -9.275527954101562 
304 2 -6.556795597076416 -3.367958545684814 9.532463073730469 
305 2 -2.218975782394409 1.028599977493286 -8.453742980957031 
306 2 -1.467383384704590 -9.416077613830566 1.111449003219604 
307 2 -2.542719125747681 3.703956842422485 3.453253030776978 
308 2 2.803227663040161 -0.442135065793991 1.535829424858093 
309 2 1.557847261428833 -5.756404876708984 -4.202960491180420 
310 2 -9.057795524597168 -3.600795984268188 7.229011058807373 
311 2 7.730280399322510 -11.390521049499512 6.405047416687012 
312 2 -5.154725074768066 -2.529020547866821 -6.261424064636230 
313 2 5.936542034149170 7.910778999328613 7.177356243133545 
314 2 3.338228940963745 -7.601868152618408 -5.111058712005615 
315 2 3.885711431503296 4.082083702087402 -9.937359809875488 
316 2 0.046585559844971 8.427304267883301 5.431175231933594 
317 2 1.119656801223755 -11.056286811828613 1.732537508010864 
318 2 -8.071007728576660 -3.565782308578491 -7.457640171051025 
319 2 6.211153030395508 -10.668321609497070 9.833175659179688 
320 2 -11.289889335632324 -11.141304969787598 0.878247916698456 
321 2 -3.506192684173584 -5.139115810394287 -3.659238100051880 
322 2 1.616473555564880 7.485365390777588 -5.561398506164551 
323 2 -8.039819717407227 1.586293220520020 8.188982009887695 
324 2 10.326463699340820 -8.512802124023438 -9.415909767150879 
325 2 -5.728062152862549 -10.256590843200684 6.109014987945557 
326 2 11.051433563232422 -0.719636082649231 -8.981184959411621 
327 2 -10.633777618408203 -4.524169445037842 -0.776357829570770 
328 2 -2.132369041442871 2.939362287521362 0.420867741107941 
329 2 8.542311668395996 11.476162910461426 10.302304267883301 
330 2 7.239170074462891 10.152294158935547 8.364689826965332 
331 2 9.961140632629395 6.603076457977295 5.662724971771240 
332 2 -7.370714664459229 -3.773861646652222 4.411811351776123 
333 2 -2.424336910247803 -7.384579181671143 -6.263732910156250 
334 2 -6.591880798339844 1.598750233650208 -8.840065956115723 
335 2 2.953604459762573 6.104234695434570 -3.776575565338135 
336 2 5.644894123077393 -3.671913623809814 -0.177776128053665 
337 2 7.767391681671143 -11.157764434814453 -1.261584401130676 
338 2 -0.859324693679810 -7.187589645385742 10.854155540466309 
339 2 -9.611740112304688 0.941877841949463 -1.051730155944824 
340 2 -9.435476303100586 -5.638236045837402 -4.577778339385986 
341 2 7.254149913787842 9.732837677001953 -2.641426801681519 
342 2 7.817507743835449 4.219470024108887 10.597522735595703 
343 2 -11.264419555664062 5.156122684478760 4.959636688232422 
344 2 8.403478622436523 7.860445976257324 -8.188967704772949 
345 2 -5.005539417266846 4.779488086700439 -7.320420742034912 
346 2 -11.314665794372559 2.998870134353638 -1.306281447410583 
347 2 5.119298934936523 -2.631070375442505 5.272493362426758 
348 2 10.373552322387695 5.053328037261963 -2.595970630645752 
349 2 4.824579715728760 7.821580410003662 9.807417869567871 
350 2 9.352221488952637 -11.196245193481445 1.176265120506287 
351 2 -4.976135253906250 -7.715280055999756 -5.613574504852295 
352 2 4.685536384582520 3.031077861785889 10.831202507019043 
353 2 -5.523208141326904 -10.747469902038574 3.575747966766357 
354 2 1.464258670806885 -4.846870899200439 6.183665752410889 
355 2 3.855207920074463 -10.533204078674316 8.582571029663086 
356 2 2.414049148559570 -5.737719535827637 1.370729327201843 
357 2 4.351576805114746 -2.066736459732056 9.991071701049805 
358 2 1.711617588996887 -2.373768568038940 -4.683742046356201 
359 2 -3.057670831680298 -10.013504981994629 -1.497800469398499 
360 2 9.969509124755859 2.029709339141846 3.122680187225342 
361 2 -11.018022537231445 -5.766490459442139 7.359936237335205 
362 2 3.081405639648438 11.570149421691895 -0.149430453777313 
363 2 8.573134422302246 -2.240692615509033 -8.437708854675293 
364 2 -7.097461223602295 -3.059732437133789 -10.468993186950684 
365 2 -9.388161659240723 6.396965503692627 6.446123123168945 
366 2 -4.322310924530029 11.160405158996582 -3.877836704254150 
367 2 -7.651569843292236 4.388151645660400 -10.588981628417969 
368 2 -0.470599532127380 -5.808159828186035 -1.750694632530212 
369 2 -0.205991804599762 -7.246741771697998 -9.759047508239746 
370 2 -2.314213037490845 8.864749908447266 -7.621200561523438 
371 2 -8.643552780151367 -6.678116321563721 -6.861560821533203 
372 2 -4.431975364685059 -7.855565071105957 2.826846361160278 
373 2 -1.862097382545471 -1.789351105690002 8.352124214172363 
374 2 11.133440017700195 5.242612361907959 -4.982781410217285 
375 2 -1.084575772285461 -2.967899322509766 10.554819107055664 
376 2 -0.443864315748215 -6.471750259399414 1.024676322937012 
377 2 4.354824542999268 -2.176748037338257 -5.596714973449707 
378 2 9.827491760253906 -3.669914484024048 -3.226914882659912 
379 2 6.918143749237061 -9.870483398437500 -11.092013359069824 
380 2 -11.325644493103027 -7.994079113006592 5.614045143127441 
381 2 -6.841117382049561 4.445939064025879 2.962958097457886 
382 2 10.653607368469238 9.719980239868164 1.719521045684814 
383 2 -5.473282814025879 -0.517358124256134 -1.443561673164368 
384 2 -1.012382268905640 -10.053635597229004 11.260442733764648 
385 2 -9.970084190368652 8.408845901489258 -10.050007820129395 
386 2 -7.311246871948242 4.412201404571533 -3.218026161193848 
387 2 -5.578933715820312 3.186385154724121 8.929206848144531 
388 2 6.863265514373779 6.913501262664795 -2.858616590499878 
389 2 -7.929619789123535 7.907421112060547 -3.766196012496948 
390 2 4.160947322845459 9.864793777465820 7.881485939025879 
391 2 -10.634891510009766 -0.060566484928131 8.622488021850586 
392 2 1.882289409637451 5.523337841033936 -7.132398605346680 
393 2 -7.513386726379395 -1.275507211685181 -5.896280288696289 
394 2 4.712575912475586 -0.266728967428207 3.641289234161377 
395 2 -0.995749175548553 5.231822490692139 1.704236268997192 
396 2 10.906204223632812 -1.960615873336792 4.357475280761719 
397 2 -6.569509029388428 3.266250371932983 -5.708850383758545 
398 2 -1.078357338905334 -0.927864372730255 -7.168435573577881 
399 2 -3.780840396881104 -10.481446266174316 8.000061035156250 
400 2 -0.547561585903168 7.115956783294678 -8.133342742919922 
401 2 9.211545944213867 -4.070992469787598 3.508294820785522 
402 2 -10.382472991943359 -4.369204044342041 4.934322834014893 
403 2 -6.298827648162842 -5.098225116729736 -2.989874839782715 
404 2 3.730901241302490 -3.239008426666260 1.821238517761230 
405 2 -7.710865974426270 -5.494627475738525 0.273879319429398 
406 2 3.202933549880981 0.844669640064240 5.979149818420410 
407 2 5.691612243652344 -0.007871835492551 6.183375835418701 
408 2 -9.775300979614258 -7.155264377593994 0.671238422393799 
409 2 5.059467792510986 -5.865226745605469 1.152343153953552 
410 2 5.149394512176514 -4.172402381896973 -11.304372787475586 
411 2 1.199947237968445 -2.222887039184570 0.579927325248718 
412 2 -1.649842858314514 -10.936137199401855 3.380594730377197 
413 2 -4.938239097595215 7.541758060455322 -7.593320369720459 
414 2 -7.783894062042236 -1.387533545494080 -0.266778767108917 
415 2 4.248385429382324 -4.991422176361084 6.314538955688477 
416 2 9.335446357727051 -1.900378108024597 6.658096313476562 
417 2 8.688740730285645 -4.093822956085205 8.724589347839355 
418 2 -6.070405960083008 -10.442497253417969 -5.242142200469971 
419 2 -0.494462311267853 0.246225714683533 10.249937057495117 
420 2 3.470122814178467 7.877330303192139 -7.705670833587646 
421 2 -10.346199989318848 1.280962347984314 6.172655582427979 
422 2 9.146656036376953 7.238915920257568 -4.388823032379150 
423 2 -1.509345769882202 4.749042987823486 6.220038890838623 
424 2 3.991753101348877 -9.852603912353516 1.319398283958435 
425 2 -0.049937829375267 -11.046454429626465 5.732064247131348 
426 2 -6.754609107971191 -0.798550188541412 3.421422958374023 
427 2 8.002052307128906 -1.982774734497070 -0.524263739585876 
428 2 -2.566935300827026 -1.712938070297241 -1.327689051628113 
429 2 3.777342319488525 2.637341022491455 -4.703971385955811 
430 2 1.624647140502930 -9.812521934509277 -8.969207763671875 
431 2 -5.463947296142578 8.577733039855957 9.966065406799316 
432 2 -11.323842048645020 -10.448178291320801 4.061134815216064 
433 2 -10.550647735595703 7.852979183197021 4.742869377136230 
434 2 6.575954437255859 -5.479833126068115 7.203347206115723 
435 2 -1.552759528160095 -6.254347324371338 5.285710334777832 
436 2 9.695185661315918 0.402693986892700 -3.109222650527954 
437 2 11.460597991943359 -4.346626281738281 2.047081232070923 
438 2 -5.845610618591309 9.634787559509277 -8.489814758300781 
439 2 -3.427518606185913 -9.529225349426270 4.525661468505859 
440 2 -2.289114713668823 1.899008154869080 5.207806587219238 
441 2 -6.558079719543457 -10.756165504455566 -0.083812296390533 
442 2 1.526115417480469 8.421532630920410 11.095863342285156 
443 2 -1.240414977073669 -9.233810424804688 -8.413414001464844 
444 2 -6.808526039123535 4.635955810546875 0.552839398384094 
445 2 -7.765226840972900 1.117520451545715 -6.651837825775146 
446 2 7.365046501159668 1.250666856765747 3.832406520843506 
447 2 -6.261657714843750 0.254265934228897 9.470661163330078 
448 2 0.254257142543793 3.730216026306152 3.818068265914917 
449 2 9.288322448730469 5.871680259704590 -6.903117179870605 
450 2 11.387953758239746 -6.270736217498779 3.720265388488770 
451 2 0.473362714052200 2.227729320526123 6.024331569671631 
452 2 2.565525531768799 -1.611068367958069 4.449880123138428 
453 2 2.318486690521240 -2.085231542587280 -1.985360622406006 
454 2 -4.511775016784668 3.097979068756104 1.841440439224243 
455 2 10.283892631530762 0.587733209133148 5.978270530700684 
456 2 -6.448558807373047 10.793167114257812 6.747481822967529 
457 2 4.131871223449707 8.150277137756348 -10.760053634643555 
458 2 -2.982950687408447 -0.063907936215401 9.917174339294434 
459 2 5.714628219604492 5.172331333160400 9.253773689270020 
460 2 -2.004756689071655 -5.608876228332520 7.842452049255371 
461 2 6.973202228546143 8.416324615478516 -10.392158508300781 
462 2 11.581988334655762 5.540259838104248 7.771703720092773 
463 2 -1.260875463485718 6.299724102020264 4.258360385894775 
464 2 0.369579881429672 -1.396861672401428 6.612514495849609 
465 2 5.293451309204102 2.020982027053833 -2.522257566452026 
466 2 10.381837844848633 -4.620556354522705 6.061012744903564 
467 2 -4.823208808898926 4.322149276733398 11.070170402526855 
468 2 9.618328094482422 -10.518465042114258 -10.768329620361328 
469 2 -9.119608879089355 -9.344260215759277 5.020458221435547 
470 2 -8.736925125122070 -9.204080581665039 -0.195842787623405 
471 2 2.923389434814453 -6.744158267974854 4.976429462432861 
472 2 -0.407161653041840 0.634130299091339 -10.330892562866211 
473 2 6.649664402008057 -7.489153385162354 -5.038832187652588 
474 2 -2.541409015655518 -7.933546543121338 -10.535756111145020 
475 2 -0.934124112129211 9.818970680236816 -1.065845489501953 