LAMMPS (7 Dec 2015)
Reading data file ...
  triclinic box = (0 0 0) to (23.3007 23.3007 23.3007) with tilt (0 0 0)
  2 by 2 by 3 MPI processor grid
  reading atoms ...
  1008 atoms
Bisection: Getting new map
Scanning dump file ...
Reading snapshot from dump file ...
  triclinic box = (0 0 0) to (23.3007 23.3007 23.3007) with tilt (0 0 0)
  1008 atoms before read
  1008 atoms in snapshot
  0 atoms purged
  1008 atoms replaced
  0 atoms trimmed
  0 atoms added
  1008 atoms after read
Scanning dump file ...
Reading snapshot from dump file ...
  triclinic box = (0 0 0) to (23.3007 23.3007 23.3007) with tilt (0 0 0)
  1008 atoms before read
  1008 atoms in snapshot
  0 atoms purged
  1008 atoms replaced
  0 atoms trimmed
  0 atoms added
  1008 atoms after read
CR_UPDATE- 23.300680	23.300680	23.300680	0.000000	0.000000	0.000000
For k = 0, applying strain of 0.995
Changing box ...
  triclinic box = (0.0582517 0 0) to (23.2424 23.3007 23.3007) with tilt (0 0 0)
WARNING: Resetting reneighboring criteria during minimization (../min.cpp:168)
Ewald initialization ...
  G vector (1/distance) = 0.365089
  estimated absolute RMS force accuracy = 1.92191e-05
  estimated relative force accuracy = 1.33469e-06
  KSpace vectors: actual max1d max3d = 2088 10 4630
                  kxmax kymax kzmax  = 10 10 10
Neighbor list info ...
  2 neighbor list requests
  update every 1 steps, delay 0 steps, check yes
  max neighbors/atom: 2000, page size: 100000
  master list distance cutoff = 11
  ghost atom cutoff = 11
Setting up cg style minimization ...
  Unit style: metal
Memory usage per processor = 4.56269 Mbytes
Step Temp E_pair E_mol TotEng Press 
       0           10   -18273.653            0   -18272.351    3865.9818 
      23           10   -18273.808            0   -18272.506    109.24646 
Loop time of 0.287381 on 12 procs for 23 steps with 1008 atoms

98.1% CPU use with 12 MPI tasks x no OpenMP threads

Minimization stats:
  Stopping criterion = linesearch alpha is zero
  Energy initial, next-to-last, final = 
        -18273.6528173     -18273.8078047     -18273.8078047
  Force two-norm initial, final = 1.82841 0.124276
  Force max component initial, final = 0.160398 0.0135645
  Final line search alpha, max atom move = 4.76837e-07 6.46807e-09
  Iterations, force evaluations = 23 87

MPI task timing breakdown:
Section |  min time  |  avg time  |  max time  |%varavg| %total
---------------------------------------------------------------
Pair    | 0.092111   | 0.099525   | 0.1135     |   1.7 | 34.63
Kspace  | 0.15831    | 0.16103    | 0.16446    |   0.5 | 56.03
Neigh   | 0          | 0          | 0          |   0.0 |  0.00
Comm    | 0.013071   | 0.024545   | 0.031479   |   2.8 |  8.54
Output  | 0          | 0          | 0          |   0.0 |  0.00
Modify  | 0          | 0          | 0          |   0.0 |  0.00
Other   |            | 0.002281   |            |       |  0.79

Nlocal:    84 ave 88 max 80 min
Histogram: 1 1 1 2 0 3 1 0 2 1
Nghost:    2626 ave 2649 max 2603 min
Histogram: 3 0 1 1 1 1 0 1 2 2
Neighs:    18722.3 ave 19695 max 17747 min
Histogram: 1 1 0 3 1 2 1 0 2 1

Total # of neighbors = 224668
Ave neighs/atom = 222.885
Neighbor list builds = 0
Dangerous builds = 0
CR_UPDATE- 23.300680	23.300680	23.300680	0.000000	0.000000	0.000000
For k = 1, applying strain of 0.996667
Changing box ...
  triclinic box = (0.0388306 0 0) to (23.2618 23.3007 23.3007) with tilt (0 0 0)
WARNING: Resetting reneighboring criteria during minimization (../min.cpp:168)
Ewald initialization ...
  G vector (1/distance) = 0.365078
  estimated absolute RMS force accuracy = 1.92793e-05
  estimated relative force accuracy = 1.33888e-06
  KSpace vectors: actual max1d max3d = 2084 10 4630
                  kxmax kymax kzmax  = 10 10 10
Setting up cg style minimization ...
  Unit style: metal
Memory usage per processor = 4.56269 Mbytes
Step Temp E_pair E_mol TotEng Press 
      23           10   -18273.787            0   -18272.485     250.9008 
      48           10   -18273.856            0   -18272.555   -2239.7832 
Loop time of 0.266407 on 12 procs for 25 steps with 1008 atoms

99.1% CPU use with 12 MPI tasks x no OpenMP threads

Minimization stats:
  Stopping criterion = linesearch alpha is zero
  Energy initial, next-to-last, final = 
        -18273.7867579     -18273.8564428     -18273.8564428
  Force two-norm initial, final = 1.21123 0.0729223
  Force max component initial, final = 0.105886 0.00665629
  Final line search alpha, max atom move = 1.90735e-06 1.26959e-08
  Iterations, force evaluations = 25 87

MPI task timing breakdown:
Section |  min time  |  avg time  |  max time  |%varavg| %total
---------------------------------------------------------------
Pair    | 0.09183    | 0.097307   | 0.10366    |   1.2 | 36.53
Kspace  | 0.1466     | 0.1511     | 0.15404    |   0.6 | 56.72
Neigh   | 0          | 0          | 0          |   0.0 |  0.00
Comm    | 0.012208   | 0.016253   | 0.021793   |   1.9 |  6.10
Output  | 0          | 0          | 0          |   0.0 |  0.00
Modify  | 0          | 0          | 0          |   0.0 |  0.00
Other   |            | 0.001746   |            |       |  0.66

Nlocal:    84 ave 88 max 80 min
Histogram: 1 1 1 2 0 3 1 0 2 1
Nghost:    2623 ave 2644 max 2601 min
Histogram: 3 0 0 2 1 1 0 1 2 2
Neighs:    18692.2 ave 19653 max 17712 min
Histogram: 1 1 0 3 1 2 1 0 2 1

Total # of neighbors = 224307
Ave neighs/atom = 222.527
Neighbor list builds = 0
Dangerous builds = 0
CR_UPDATE- 23.300680	23.300680	23.300680	0.000000	0.000000	0.000000
For k = 2, applying strain of 0.998333
Changing box ...
  triclinic box = (0.0194211 0 0) to (23.2813 23.3007 23.3007) with tilt (0 0 0)
WARNING: Resetting reneighboring criteria during minimization (../min.cpp:168)
Ewald initialization ...
  G vector (1/distance) = 0.365066
  estimated absolute RMS force accuracy = 1.9345e-05
  estimated relative force accuracy = 1.34344e-06
  KSpace vectors: actual max1d max3d = 2084 10 4630
                  kxmax kymax kzmax  = 10 10 10
Setting up cg style minimization ...
  Unit style: metal
Memory usage per processor = 4.56269 Mbytes
Step Temp E_pair E_mol TotEng Press 
      48           10   -18273.833            0   -18272.531   -3323.3875 
      50           10   -18273.843            0   -18272.541   -3951.6147 
      59           10   -18273.849            0   -18272.547   -4430.1391 
Loop time of 0.198028 on 12 procs for 11 steps with 1008 atoms

98.5% CPU use with 12 MPI tasks x no OpenMP threads

Minimization stats:
  Stopping criterion = linesearch alpha is zero
  Energy initial, next-to-last, final = 
        -18273.8328008     -18273.8488118     -18273.8488118
  Force two-norm initial, final = 0.601624 0.0972045
  Force max component initial, final = 0.0524255 0.00798268
  Final line search alpha, max atom move = 9.53674e-07 7.61288e-09
  Iterations, force evaluations = 11 61

MPI task timing breakdown:
Section |  min time  |  avg time  |  max time  |%varavg| %total
---------------------------------------------------------------
Pair    | 0.06434    | 0.069261   | 0.074006   |   1.1 | 34.98
Kspace  | 0.10871    | 0.11141    | 0.11444    |   0.5 | 56.26
Neigh   | 0          | 0          | 0          |   0.0 |  0.00
Comm    | 0.012393   | 0.015637   | 0.019346   |   1.5 |  7.90
Output  | 2.408e-05  | 2.5153e-05 | 3.314e-05  |   0.0 |  0.01
Modify  | 0          | 0          | 0          |   0.0 |  0.00
Other   |            | 0.001699   |            |       |  0.86

Nlocal:    84 ave 88 max 80 min
Histogram: 1 1 1 2 0 3 1 0 2 1
Nghost:    2616.25 ave 2640 max 2592 min
Histogram: 2 1 2 1 0 1 0 1 2 2
Neighs:    18661.2 ave 19623 max 17680 min
Histogram: 1 1 0 3 1 2 1 0 2 1

Total # of neighbors = 223935
Ave neighs/atom = 222.158
Neighbor list builds = 0
Dangerous builds = 0
CR_UPDATE- 23.300680	23.300680	23.300680	0.000000	0.000000	0.000000
For k = 3, applying strain of 1
Changing box ...
  triclinic box = (0 0 0) to (23.3007 23.3007 23.3007) with tilt (0 0 0)
WARNING: Resetting reneighboring criteria during minimization (../min.cpp:168)
Ewald initialization ...
  G vector (1/distance) = 0.365055
  estimated absolute RMS force accuracy = 1.94166e-05
  estimated relative force accuracy = 1.34841e-06
  KSpace vectors: actual max1d max3d = 2084 10 4630
                  kxmax kymax kzmax  = 10 10 10
Setting up cg style minimization ...
  Unit style: metal
Memory usage per processor = 4.56269 Mbytes
Step Temp E_pair E_mol TotEng Press 
      59           10   -18273.795            0   -18272.493   -6862.1231 
      61           10   -18273.795            0   -18272.493   -6859.7984 
Loop time of 0.0782737 on 12 procs for 2 steps with 1008 atoms

100.2% CPU use with 12 MPI tasks x no OpenMP threads

Minimization stats:
  Stopping criterion = linesearch alpha is zero
  Energy initial, next-to-last, final = 
        -18273.7946975     -18273.7947007     -18273.7947007
  Force two-norm initial, final = 0.00476106 0.00318501
  Force max component initial, final = 0.000354564 0.000278131
  Final line search alpha, max atom move = 0.000976562 2.71612e-07
  Iterations, force evaluations = 2 25

MPI task timing breakdown:
Section |  min time  |  avg time  |  max time  |%varavg| %total
---------------------------------------------------------------
Pair    | 0.027267   | 0.028876   | 0.030423   |   0.6 | 36.89
Kspace  | 0.043094   | 0.043784   | 0.044691   |   0.2 | 55.94
Neigh   | 0          | 0          | 0          |   0.0 |  0.00
Comm    | 0.0035436  | 0.0051031  | 0.0066473  |   1.1 |  6.52
Output  | 0          | 0          | 0          |   0.0 |  0.00
Modify  | 0          | 0          | 0          |   0.0 |  0.00
Other   |            | 0.0005102  |            |       |  0.65

Nlocal:    84 ave 88 max 80 min
Histogram: 1 1 1 2 0 3 1 0 2 1
Nghost:    2611.5 ave 2632 max 2590 min
Histogram: 2 1 1 1 1 1 1 0 2 2
Neighs:    18629.7 ave 19581 max 17651 min
Histogram: 1 1 0 2 2 2 1 0 2 1

Total # of neighbors = 223556
Ave neighs/atom = 221.782
Neighbor list builds = 0
Dangerous builds = 0
CR_UPDATE- 23.300680	23.300680	23.300680	0.000000	0.000000	0.000000
For k = 4, applying strain of 1.00167
Changing box ...
  triclinic box = (-0.0194211 0 0) to (23.3201 23.3007 23.3007) with tilt (0 0 0)
WARNING: Resetting reneighboring criteria during minimization (../min.cpp:168)
Ewald initialization ...
  G vector (1/distance) = 0.365044
  estimated absolute RMS force accuracy = 1.94944e-05
  estimated relative force accuracy = 1.35381e-06
  KSpace vectors: actual max1d max3d = 2084 10 4630
                  kxmax kymax kzmax  = 10 10 10
Setting up cg style minimization ...
  Unit style: metal
Memory usage per processor = 4.56269 Mbytes
Step Temp E_pair E_mol TotEng Press 
      61           10   -18273.673            0   -18272.371   -10363.464 
      71           10   -18273.687            0   -18272.386   -9266.3127 
Loop time of 0.177871 on 12 procs for 10 steps with 1008 atoms

99.4% CPU use with 12 MPI tasks x no OpenMP threads

Minimization stats:
  Stopping criterion = linesearch alpha is zero
  Energy initial, next-to-last, final = 
        -18273.6728647     -18273.6873893     -18273.6873893
  Force two-norm initial, final = 0.59754 0.108298
  Force max component initial, final = 0.0516139 0.00868832
  Final line search alpha, max atom move = 9.53674e-07 8.28583e-09
  Iterations, force evaluations = 10 59

MPI task timing breakdown:
Section |  min time  |  avg time  |  max time  |%varavg| %total
---------------------------------------------------------------
Pair    | 0.062725   | 0.066175   | 0.07025    |   0.8 | 37.20
Kspace  | 0.098916   | 0.10032    | 0.10205    |   0.3 | 56.40
Neigh   | 0          | 0          | 0          |   0.0 |  0.00
Comm    | 0.0071363  | 0.010284   | 0.013767   |   1.7 |  5.78
Output  | 0          | 0          | 0          |   0.0 |  0.00
Modify  | 0          | 0          | 0          |   0.0 |  0.00
Other   |            | 0.00109    |            |       |  0.61

Nlocal:    84 ave 88 max 80 min
Histogram: 1 1 1 2 0 3 1 0 2 1
Nghost:    2605.08 ave 2624 max 2586 min
Histogram: 3 0 2 0 1 1 0 1 2 2
Neighs:    18601.2 ave 19543 max 17627 min
Histogram: 1 1 0 2 2 2 1 0 2 1

Total # of neighbors = 223215
Ave neighs/atom = 221.443
Neighbor list builds = 0
Dangerous builds = 0
CR_UPDATE- 23.300680	23.300680	23.300680	0.000000	0.000000	0.000000
For k = 5, applying strain of 1.00333
Changing box ...
  triclinic box = (-0.0388306 0 0) to (23.3395 23.3007 23.3007) with tilt (0 0 0)
WARNING: Resetting reneighboring criteria during minimization (../min.cpp:168)
Ewald initialization ...
  G vector (1/distance) = 0.365032
  estimated absolute RMS force accuracy = 1.95788e-05
  estimated relative force accuracy = 1.35968e-06
  KSpace vectors: actual max1d max3d = 2084 10 4630
                  kxmax kymax kzmax  = 10 10 10
Setting up cg style minimization ...
  Unit style: metal
Memory usage per processor = 4.56269 Mbytes
Step Temp E_pair E_mol TotEng Press 
      71           10   -18273.465            0   -18272.164   -13824.918 
      89           10   -18273.532            0    -18272.23   -11455.227 
Loop time of 0.225887 on 12 procs for 18 steps with 1008 atoms

99.7% CPU use with 12 MPI tasks x no OpenMP threads

Minimization stats:
  Stopping criterion = linesearch alpha is zero
  Energy initial, next-to-last, final = 
        -18273.4654862     -18273.5319531     -18273.5319531
  Force two-norm initial, final = 1.18665 0.11182
  Force max component initial, final = 0.102158 0.0160866
  Final line search alpha, max atom move = 9.53674e-07 1.53414e-08
  Iterations, force evaluations = 18 75

MPI task timing breakdown:
Section |  min time  |  avg time  |  max time  |%varavg| %total
---------------------------------------------------------------
Pair    | 0.07903    | 0.083696   | 0.088202   |   0.9 | 37.05
Kspace  | 0.12397    | 0.12684    | 0.12925    |   0.5 | 56.15
Neigh   | 0          | 0          | 0          |   0.0 |  0.00
Comm    | 0.010431   | 0.013727   | 0.017362   |   1.9 |  6.08
Output  | 0          | 0          | 0          |   0.0 |  0.00
Modify  | 0          | 0          | 0          |   0.0 |  0.00
Other   |            | 0.001624   |            |       |  0.72

Nlocal:    84 ave 88 max 80 min
Histogram: 1 1 1 2 0 3 1 0 2 1
Nghost:    2603.08 ave 2622 max 2586 min
Histogram: 3 0 0 3 1 0 1 1 1 2
Neighs:    18572.5 ave 19515 max 17610 min
Histogram: 1 1 0 3 1 2 1 0 2 1

Total # of neighbors = 222870
Ave neighs/atom = 221.101
Neighbor list builds = 0
Dangerous builds = 0
CR_UPDATE- 23.300680	23.300680	23.300680	0.000000	0.000000	0.000000
For k = 6, applying strain of 1.005
Changing box ...
  triclinic box = (-0.0582517 0 0) to (23.3589 23.3007 23.3007) with tilt (0 0 0)
WARNING: Resetting reneighboring criteria during minimization (../min.cpp:168)
Ewald initialization ...
  G vector (1/distance) = 0.365021
  estimated absolute RMS force accuracy = 1.96704e-05
  estimated relative force accuracy = 1.36604e-06
  KSpace vectors: actual max1d max3d = 2084 10 4630
                  kxmax kymax kzmax  = 10 10 10
Setting up cg style minimization ...
  Unit style: metal
Memory usage per processor = 4.56269 Mbytes
Step Temp E_pair E_mol TotEng Press 
      89           10   -18273.181            0    -18271.88   -17253.229 
     100           10   -18273.319            0   -18272.018   -13929.715 
     109           10   -18273.328            0   -18272.027     -13701.6 
Loop time of 0.239303 on 12 procs for 20 steps with 1008 atoms

99.9% CPU use with 12 MPI tasks x no OpenMP threads

Minimization stats:
  Stopping criterion = linesearch alpha is zero
  Energy initial, next-to-last, final = 
        -18273.1814735     -18273.3283669     -18273.3283669
  Force two-norm initial, final = 1.76938 0.13556
  Force max component initial, final = 0.151786 0.0108984
  Final line search alpha, max atom move = 4.76837e-07 5.19678e-09
  Iterations, force evaluations = 20 81

MPI task timing breakdown:
Section |  min time  |  avg time  |  max time  |%varavg| %total
---------------------------------------------------------------
Pair    | 0.084536   | 0.089248   | 0.094456   |   0.9 | 37.30
Kspace  | 0.13292    | 0.13471    | 0.13704    |   0.3 | 56.29
Neigh   | 0          | 0          | 0          |   0.0 |  0.00
Comm    | 0.0092709  | 0.013744   | 0.018379   |   2.0 |  5.74
Output  | 2.5988e-05 | 2.6902e-05 | 3.5048e-05 |   0.0 |  0.01
Modify  | 0          | 0          | 0          |   0.0 |  0.00
Other   |            | 0.001576   |            |       |  0.66

Nlocal:    84 ave 88 max 80 min
Histogram: 1 1 1 2 0 3 1 0 2 1
Nghost:    2597.67 ave 2619 max 2576 min
Histogram: 2 1 0 2 2 0 1 1 2 1
Neighs:    18539.2 ave 19475 max 17584 min
Histogram: 2 0 0 3 1 2 1 0 2 1

Total # of neighbors = 222471
Ave neighs/atom = 220.705
Neighbor list builds = 0
Dangerous builds = 0
CR_UPDATE- 23.300680	23.300680	23.300680	0.000000	0.000000	0.000000
For k = 0, applying strain of 0.995
Changing box ...
  triclinic box = (0 0.0582517 0) to (23.3007 23.2424 23.3007) with tilt (0 0 0)
WARNING: Resetting reneighboring criteria during minimization (../min.cpp:168)
Ewald initialization ...
  G vector (1/distance) = 0.365089
  estimated absolute RMS force accuracy = 1.92191e-05
  estimated relative force accuracy = 1.33469e-06
  KSpace vectors: actual max1d max3d = 2088 10 4630
                  kxmax kymax kzmax  = 10 10 10
Setting up cg style minimization ...
  Unit style: metal
Memory usage per processor = 4.56269 Mbytes
Step Temp E_pair E_mol TotEng Press 
     109           10   -18273.876            0   -18272.575     3857.846 
     132           10   -18274.021            0    -18272.72    340.88491 
Loop time of 0.269773 on 12 procs for 23 steps with 1008 atoms

99.7% CPU use with 12 MPI tasks x no OpenMP threads

Minimization stats:
  Stopping criterion = linesearch alpha is zero
  Energy initial, next-to-last, final = 
        -18273.8762961     -18274.0211636     -18274.0211636
  Force two-norm initial, final = 1.74444 0.121057
  Force max component initial, final = 0.165811 0.0134066
  Final line search alpha, max atom move = 4.76837e-07 6.39276e-09
  Iterations, force evaluations = 23 87

MPI task timing breakdown:
Section |  min time  |  avg time  |  max time  |%varavg| %total
---------------------------------------------------------------
Pair    | 0.093145   | 0.099087   | 0.1054     |   1.1 | 36.73
Kspace  | 0.14605    | 0.1489     | 0.15453    |   0.6 | 55.19
Neigh   | 0          | 0          | 0          |   0.0 |  0.00
Comm    | 0.013926   | 0.020033   | 0.026351   |   2.0 |  7.43
Output  | 0          | 0          | 0          |   0.0 |  0.00
Modify  | 0          | 0          | 0          |   0.0 |  0.00
Other   |            | 0.001758   |            |       |  0.65

Nlocal:    84 ave 88 max 80 min
Histogram: 1 1 1 2 0 3 1 0 2 1
Nghost:    2624.75 ave 2646 max 2603 min
Histogram: 3 0 2 1 0 1 1 0 0 4
Neighs:    18721.3 ave 19696 max 17735 min
Histogram: 1 1 0 3 1 2 1 0 2 1

Total # of neighbors = 224656
Ave neighs/atom = 222.873
Neighbor list builds = 0
Dangerous builds = 0
CR_UPDATE- 23.300680	23.300680	23.300680	0.000000	0.000000	0.000000
For k = 1, applying strain of 0.996667
Changing box ...
  triclinic box = (0 0.0388306 0) to (23.3007 23.2618 23.3007) with tilt (0 0 0)
WARNING: Resetting reneighboring criteria during minimization (../min.cpp:168)
Ewald initialization ...
  G vector (1/distance) = 0.365078
  estimated absolute RMS force accuracy = 1.92793e-05
  estimated relative force accuracy = 1.33888e-06
  KSpace vectors: actual max1d max3d = 2084 10 4630
                  kxmax kymax kzmax  = 10 10 10
Setting up cg style minimization ...
  Unit style: metal
Memory usage per processor = 4.56269 Mbytes
Step Temp E_pair E_mol TotEng Press 
     132           10   -18273.933            0   -18272.631    245.89712 
     145           10   -18273.995            0   -18272.694   -1915.3128 
Loop time of 0.215529 on 12 procs for 13 steps with 1008 atoms

99.6% CPU use with 12 MPI tasks x no OpenMP threads

Minimization stats:
  Stopping criterion = linesearch alpha is zero
  Energy initial, next-to-last, final = 
        -18273.9327268     -18273.9954657     -18273.9954657
  Force two-norm initial, final = 1.15579 0.174977
  Force max component initial, final = 0.109487 0.0276955
  Final line search alpha, max atom move = 2.38419e-07 6.60312e-09
  Iterations, force evaluations = 13 69

MPI task timing breakdown:
Section |  min time  |  avg time  |  max time  |%varavg| %total
---------------------------------------------------------------
Pair    | 0.073986   | 0.07886    | 0.085092   |   1.0 | 36.59
Kspace  | 0.11963    | 0.12145    | 0.12343    |   0.3 | 56.35
Neigh   | 0          | 0          | 0          |   0.0 |  0.00
Comm    | 0.00861    | 0.013865   | 0.018029   |   2.0 |  6.43
Output  | 0          | 0          | 0          |   0.0 |  0.00
Modify  | 0          | 0          | 0          |   0.0 |  0.00
Other   |            | 0.001355   |            |       |  0.63

Nlocal:    84 ave 88 max 80 min
Histogram: 1 1 1 2 0 3 1 0 2 1
Nghost:    2619.42 ave 2641 max 2598 min
Histogram: 3 1 0 2 0 0 2 0 2 2
Neighs:    18691.9 ave 19660 max 17715 min
Histogram: 1 1 0 3 1 2 1 0 2 1

Total # of neighbors = 224303
Ave neighs/atom = 222.523
Neighbor list builds = 0
Dangerous builds = 0
CR_UPDATE- 23.300680	23.300680	23.300680	0.000000	0.000000	0.000000
For k = 2, applying strain of 0.998333
Changing box ...
  triclinic box = (0 0.0194211 0) to (23.3007 23.2813 23.3007) with tilt (0 0 0)
WARNING: Resetting reneighboring criteria during minimization (../min.cpp:168)
Ewald initialization ...
  G vector (1/distance) = 0.365066
  estimated absolute RMS force accuracy = 1.9345e-05
  estimated relative force accuracy = 1.34344e-06
  KSpace vectors: actual max1d max3d = 2084 10 4630
                  kxmax kymax kzmax  = 10 10 10
Setting up cg style minimization ...
  Unit style: metal
Memory usage per processor = 4.56269 Mbytes
Step Temp E_pair E_mol TotEng Press 
     145           10   -18273.907            0   -18272.605   -3326.3319 
     150           10    -18273.92            0   -18272.618   -4204.5025 
     153           10   -18273.922            0    -18272.62   -4310.0164 
Loop time of 0.178328 on 12 procs for 8 steps with 1008 atoms

99.6% CPU use with 12 MPI tasks x no OpenMP threads

Minimization stats:
  Stopping criterion = linesearch alpha is zero
  Energy initial, next-to-last, final = 
        -18273.9071274     -18273.9216599     -18273.9216599
  Force two-norm initial, final = 0.574136 0.138273
  Force max component initial, final = 0.0542252 0.0115176
  Final line search alpha, max atom move = 4.76837e-07 5.49202e-09
  Iterations, force evaluations = 8 57

MPI task timing breakdown:
Section |  min time  |  avg time  |  max time  |%varavg| %total
---------------------------------------------------------------
Pair    | 0.061323   | 0.065216   | 0.070266   |   0.9 | 36.57
Kspace  | 0.098224   | 0.099673   | 0.10137    |   0.3 | 55.89
Neigh   | 0          | 0          | 0          |   0.0 |  0.00
Comm    | 0.0076027  | 0.012157   | 0.015752   |   1.8 |  6.82
Output  | 2.2888e-05 | 2.4358e-05 | 3.1948e-05 |   0.0 |  0.01
Modify  | 0          | 0          | 0          |   0.0 |  0.00
Other   |            | 0.001258   |            |       |  0.71

Nlocal:    84 ave 88 max 80 min
Histogram: 1 1 1 2 0 3 1 0 2 1
Nghost:    2614.5 ave 2636 max 2592 min
Histogram: 2 1 1 1 1 0 2 0 2 2
Neighs:    18659.8 ave 19618 max 17681 min
Histogram: 1 1 0 3 1 2 1 0 2 1

Total # of neighbors = 223918
Ave neighs/atom = 222.141
Neighbor list builds = 0
Dangerous builds = 0
CR_UPDATE- 23.300680	23.300680	23.300680	0.000000	0.000000	0.000000
For k = 3, applying strain of 1
Changing box ...
  triclinic box = (0 0 0) to (23.3007 23.3007 23.3007) with tilt (0 0 0)
WARNING: Resetting reneighboring criteria during minimization (../min.cpp:168)
Ewald initialization ...
  G vector (1/distance) = 0.365055
  estimated absolute RMS force accuracy = 1.94166e-05
  estimated relative force accuracy = 1.34841e-06
  KSpace vectors: actual max1d max3d = 2084 10 4630
                  kxmax kymax kzmax  = 10 10 10
Setting up cg style minimization ...
  Unit style: metal
Memory usage per processor = 4.56269 Mbytes
Step Temp E_pair E_mol TotEng Press 
     153           10   -18273.795            0   -18272.493   -6862.1231 
     155           10   -18273.795            0   -18272.493   -6859.7984 
Loop time of 0.078572 on 12 procs for 2 steps with 1008 atoms

100.2% CPU use with 12 MPI tasks x no OpenMP threads

Minimization stats:
  Stopping criterion = linesearch alpha is zero
  Energy initial, next-to-last, final = 
        -18273.7946975     -18273.7947007     -18273.7947007
  Force two-norm initial, final = 0.00476106 0.00318501
  Force max component initial, final = 0.000354564 0.000278131
  Final line search alpha, max atom move = 0.000976562 2.71612e-07
  Iterations, force evaluations = 2 25

MPI task timing breakdown:
Section |  min time  |  avg time  |  max time  |%varavg| %total
---------------------------------------------------------------
Pair    | 0.027549   | 0.029086   | 0.031191   |   0.6 | 37.02
Kspace  | 0.04329    | 0.044053   | 0.045015   |   0.3 | 56.07
Neigh   | 0          | 0          | 0          |   0.0 |  0.00
Comm    | 0.0033994  | 0.0048987  | 0.0061905  |   1.1 |  6.23
Output  | 0          | 0          | 0          |   0.0 |  0.00
Modify  | 0          | 0          | 0          |   0.0 |  0.00
Other   |            | 0.0005338  |            |       |  0.68

Nlocal:    84 ave 88 max 80 min
Histogram: 1 1 1 2 0 3 1 0 2 1
Nghost:    2611.5 ave 2632 max 2590 min
Histogram: 2 1 1 1 1 1 1 0 2 2
Neighs:    18629.7 ave 19581 max 17651 min
Histogram: 1 1 0 2 2 2 1 0 2 1

Total # of neighbors = 223556
Ave neighs/atom = 221.782
Neighbor list builds = 0
Dangerous builds = 0
CR_UPDATE- 23.300680	23.300680	23.300680	0.000000	0.000000	0.000000
For k = 4, applying strain of 1.00167
Changing box ...
  triclinic box = (0 -0.0194211 0) to (23.3007 23.3201 23.3007) with tilt (0 0 0)
WARNING: Resetting reneighboring criteria during minimization (../min.cpp:168)
Ewald initialization ...
  G vector (1/distance) = 0.365044
  estimated absolute RMS force accuracy = 1.94944e-05
  estimated relative force accuracy = 1.35381e-06
  KSpace vectors: actual max1d max3d = 2084 10 4630
                  kxmax kymax kzmax  = 10 10 10
Setting up cg style minimization ...
  Unit style: metal
Memory usage per processor = 4.56269 Mbytes
Step Temp E_pair E_mol TotEng Press 
     155           10   -18273.601            0   -18272.299   -10360.879 
     165           10   -18273.617            0   -18272.315   -9327.5582 
Loop time of 0.186529 on 12 procs for 10 steps with 1008 atoms

99.8% CPU use with 12 MPI tasks x no OpenMP threads

Minimization stats:
  Stopping criterion = linesearch alpha is zero
  Energy initial, next-to-last, final = 
        -18273.6010261     -18273.6171028     -18273.6171028
  Force two-norm initial, final = 0.570813 0.111761
  Force max component initial, final = 0.0532989 0.0115232
  Final line search alpha, max atom move = 9.53674e-07 1.09894e-08
  Iterations, force evaluations = 10 59

MPI task timing breakdown:
Section |  min time  |  avg time  |  max time  |%varavg| %total
---------------------------------------------------------------
Pair    | 0.063539   | 0.068341   | 0.07391    |   1.1 | 36.64
Kspace  | 0.1029     | 0.10515    | 0.10785    |   0.5 | 56.37
Neigh   | 0          | 0          | 0          |   0.0 |  0.00
Comm    | 0.0076873  | 0.01182    | 0.015551   |   1.8 |  6.34
Output  | 0          | 0          | 0          |   0.0 |  0.00
Modify  | 0          | 0          | 0          |   0.0 |  0.00
Other   |            | 0.001213   |            |       |  0.65

Nlocal:    84 ave 88 max 80 min
Histogram: 1 1 1 2 0 3 1 0 2 1
Nghost:    2607.75 ave 2630 max 2588 min
Histogram: 3 0 2 2 0 0 0 2 1 2
Neighs:    18599 ave 19539 max 17628 min
Histogram: 1 1 0 3 1 2 1 0 2 1

Total # of neighbors = 223188
Ave neighs/atom = 221.417
Neighbor list builds = 0
Dangerous builds = 0
CR_UPDATE- 23.300680	23.300680	23.300680	0.000000	0.000000	0.000000
For k = 5, applying strain of 1.00333
Changing box ...
  triclinic box = (0 -0.0388306 0) to (23.3007 23.3395 23.3007) with tilt (0 0 0)
WARNING: Resetting reneighboring criteria during minimization (../min.cpp:168)
Ewald initialization ...
  G vector (1/distance) = 0.365032
  estimated absolute RMS force accuracy = 1.95788e-05
  estimated relative force accuracy = 1.35968e-06
  KSpace vectors: actual max1d max3d = 2084 10 4630
                  kxmax kymax kzmax  = 10 10 10
Setting up cg style minimization ...
  Unit style: metal
Memory usage per processor = 4.56269 Mbytes
Step Temp E_pair E_mol TotEng Press 
     165           10   -18273.323            0   -18272.021   -13819.905 
     184           10   -18273.387            0   -18272.085   -11578.378 
Loop time of 0.239061 on 12 procs for 19 steps with 1008 atoms

99.6% CPU use with 12 MPI tasks x no OpenMP threads

Minimization stats:
  Stopping criterion = linesearch alpha is zero
  Energy initial, next-to-last, final = 
        -18273.3231304     -18273.3869056     -18273.3869056
  Force two-norm initial, final = 1.13349 0.108631
  Force max component initial, final = 0.105523 0.0105158
  Final line search alpha, max atom move = 9.53674e-07 1.00286e-08
  Iterations, force evaluations = 19 77

MPI task timing breakdown:
Section |  min time  |  avg time  |  max time  |%varavg| %total
---------------------------------------------------------------
Pair    | 0.083122   | 0.087909   | 0.093631   |   0.9 | 36.77
Kspace  | 0.13211    | 0.13388    | 0.1367     |   0.3 | 56.00
Neigh   | 0          | 0          | 0          |   0.0 |  0.00
Comm    | 0.0093579  | 0.015738   | 0.020747   |   2.2 |  6.58
Output  | 0          | 0          | 0          |   0.0 |  0.00
Modify  | 0          | 0          | 0          |   0.0 |  0.00
Other   |            | 0.001528   |            |       |  0.64

Nlocal:    84 ave 88 max 80 min
Histogram: 1 1 1 2 0 3 1 0 2 1
Nghost:    2602.08 ave 2626 max 2579 min
Histogram: 1 2 2 0 2 0 0 2 2 1
Neighs:    18569.5 ave 19499 max 17612 min
Histogram: 1 1 1 2 1 2 1 0 2 1

Total # of neighbors = 222834
Ave neighs/atom = 221.065
Neighbor list builds = 0
Dangerous builds = 0
CR_UPDATE- 23.300680	23.300680	23.300680	0.000000	0.000000	0.000000
For k = 6, applying strain of 1.005
Changing box ...
  triclinic box = (0 -0.0582517 0) to (23.3007 23.3589 23.3007) with tilt (0 0 0)
WARNING: Resetting reneighboring criteria during minimization (../min.cpp:168)
Ewald initialization ...
  G vector (1/distance) = 0.365021
  estimated absolute RMS force accuracy = 1.96704e-05
  estimated relative force accuracy = 1.36604e-06
  KSpace vectors: actual max1d max3d = 2084 10 4630
                  kxmax kymax kzmax  = 10 10 10
Setting up cg style minimization ...
  Unit style: metal
Memory usage per processor = 4.56269 Mbytes
Step Temp E_pair E_mol TotEng Press 
     184           10   -18272.966            0   -18271.664   -17244.688 
     200           10   -18273.104            0   -18271.802    -13940.14 
     210           10   -18273.108            0   -18271.806   -13835.422 
Loop time of 0.395592 on 12 procs for 26 steps with 1008 atoms

99.7% CPU use with 12 MPI tasks x no OpenMP threads

Minimization stats:
  Stopping criterion = linesearch alpha is zero
  Energy initial, next-to-last, final = 
        -18272.9660798     -18273.1081117     -18273.1081117
  Force two-norm initial, final = 1.6905 0.0947848
  Force max component initial, final = 0.156807 0.00935954
  Final line search alpha, max atom move = 9.53674e-07 8.92596e-09
  Iterations, force evaluations = 26 129

MPI task timing breakdown:
Section |  min time  |  avg time  |  max time  |%varavg| %total
---------------------------------------------------------------
Pair    | 0.13801    | 0.1453     | 0.15575    |   1.3 | 36.73
Kspace  | 0.22035    | 0.22313    | 0.22807    |   0.5 | 56.41
Neigh   | 0          | 0          | 0          |   0.0 |  0.00
Comm    | 0.016123   | 0.02396    | 0.031253   |   2.6 |  6.06
Output  | 2.718e-05  | 2.8074e-05 | 3.6001e-05 |   0.0 |  0.01
Modify  | 0          | 0          | 0          |   0.0 |  0.00
Other   |            | 0.003167   |            |       |  0.80

Nlocal:    84 ave 88 max 80 min
Histogram: 1 1 1 2 0 3 1 0 2 1
Nghost:    2599.58 ave 2624 max 2577 min
Histogram: 1 2 1 3 0 0 0 2 2 1
Neighs:    18538.1 ave 19466 max 17584 min
Histogram: 1 1 1 2 1 2 1 0 2 1

Total # of neighbors = 222457
Ave neighs/atom = 220.691
Neighbor list builds = 0
Dangerous builds = 0
CR_UPDATE- 23.300680	23.300680	23.300680	0.000000	0.000000	0.000000
For k = 0, applying strain of 0.995
Changing box ...
  triclinic box = (0 0 0.0582517) to (23.3007 23.3007 23.2424) with tilt (0 0 0)
WARNING: Resetting reneighboring criteria during minimization (../min.cpp:168)
Ewald initialization ...
  G vector (1/distance) = 0.365089
  estimated absolute RMS force accuracy = 1.92191e-05
  estimated relative force accuracy = 1.33469e-06
  KSpace vectors: actual max1d max3d = 2088 10 4630
                  kxmax kymax kzmax  = 10 10 10
Setting up cg style minimization ...
  Unit style: metal
Memory usage per processor = 4.56269 Mbytes
Step Temp E_pair E_mol TotEng Press 
     210           10   -18273.814            0   -18272.513    3603.8959 
     232           10   -18273.966            0   -18272.664    57.186029 
Loop time of 0.263426 on 12 procs for 22 steps with 1008 atoms

99.9% CPU use with 12 MPI tasks x no OpenMP threads

Minimization stats:
  Stopping criterion = linesearch alpha is zero
  Energy initial, next-to-last, final = 
        -18273.8143976     -18273.9658492     -18273.9658492
  Force two-norm initial, final = 1.88649 0.116594
  Force max component initial, final = 0.146596 0.0198218
  Final line search alpha, max atom move = 4.76837e-07 9.45177e-09
  Iterations, force evaluations = 22 85

MPI task timing breakdown:
Section |  min time  |  avg time  |  max time  |%varavg| %total
---------------------------------------------------------------
Pair    | 0.09291    | 0.098186   | 0.10409    |   1.0 | 37.27
Kspace  | 0.14548    | 0.14718    | 0.14964    |   0.4 | 55.87
Neigh   | 0          | 0          | 0          |   0.0 |  0.00
Comm    | 0.011062   | 0.01628    | 0.021396   |   2.1 |  6.18
Output  | 0          | 0          | 0          |   0.0 |  0.00
Modify  | 0          | 0          | 0          |   0.0 |  0.00
Other   |            | 0.00178    |            |       |  0.68

Nlocal:    84 ave 88 max 80 min
Histogram: 1 1 1 2 0 3 1 0 2 1
Nghost:    2621.5 ave 2643 max 2599 min
Histogram: 2 1 1 1 1 0 1 3 0 2
Neighs:    18725.8 ave 19673 max 17725 min
Histogram: 1 1 0 2 2 2 1 0 2 1

Total # of neighbors = 224710
Ave neighs/atom = 222.927
Neighbor list builds = 0
Dangerous builds = 0
CR_UPDATE- 23.300680	23.300680	23.300680	0.000000	0.000000	0.000000
For k = 1, applying strain of 0.996667
Changing box ...
  triclinic box = (0 0 0.0388306) to (23.3007 23.3007 23.2618) with tilt (0 0 0)
WARNING: Resetting reneighboring criteria during minimization (../min.cpp:168)
Ewald initialization ...
  G vector (1/distance) = 0.365078
  estimated absolute RMS force accuracy = 1.92793e-05
  estimated relative force accuracy = 1.33888e-06
  KSpace vectors: actual max1d max3d = 2084 10 4630
                  kxmax kymax kzmax  = 10 10 10
Setting up cg style minimization ...
  Unit style: metal
Memory usage per processor = 4.56269 Mbytes
Step Temp E_pair E_mol TotEng Press 
     232           10   -18273.888            0   -18272.586    78.341097 
     242           10   -18273.949            0   -18272.647   -2075.2286 
Loop time of 0.195261 on 12 procs for 10 steps with 1008 atoms

99.9% CPU use with 12 MPI tasks x no OpenMP threads

Minimization stats:
  Stopping criterion = linesearch alpha is zero
  Energy initial, next-to-last, final = 
        -18273.8879803     -18273.9488399     -18273.9488399
  Force two-norm initial, final = 1.25004 0.212422
  Force max component initial, final = 0.0969124 0.0215232
  Final line search alpha, max atom move = 2.38419e-07 5.13153e-09
  Iterations, force evaluations = 10 63

MPI task timing breakdown:
Section |  min time  |  avg time  |  max time  |%varavg| %total
---------------------------------------------------------------
Pair    | 0.068284   | 0.072321   | 0.077811   |   1.0 | 37.04
Kspace  | 0.10838    | 0.11011    | 0.11211    |   0.4 | 56.39
Neigh   | 0          | 0          | 0          |   0.0 |  0.00
Comm    | 0.0077989  | 0.011622   | 0.015287   |   1.8 |  5.95
Output  | 0          | 0          | 0          |   0.0 |  0.00
Modify  | 0          | 0          | 0          |   0.0 |  0.00
Other   |            | 0.001206   |            |       |  0.62

Nlocal:    84 ave 88 max 80 min
Histogram: 1 1 1 2 0 3 1 0 2 1
Nghost:    2619.25 ave 2641 max 2597 min
Histogram: 1 2 0 2 1 1 1 1 1 2
Neighs:    18693.6 ave 19648 max 17698 min
Histogram: 1 1 0 2 2 2 1 0 2 1

Total # of neighbors = 224323
Ave neighs/atom = 222.543
Neighbor list builds = 0
Dangerous builds = 0
CR_UPDATE- 23.300680	23.300680	23.300680	0.000000	0.000000	0.000000
For k = 2, applying strain of 0.998333
Changing box ...
  triclinic box = (0 0 0.0194211) to (23.3007 23.3007 23.2813) with tilt (0 0 0)
WARNING: Resetting reneighboring criteria during minimization (../min.cpp:168)
Ewald initialization ...
  G vector (1/distance) = 0.365066
  estimated absolute RMS force accuracy = 1.9345e-05
  estimated relative force accuracy = 1.34344e-06
  KSpace vectors: actual max1d max3d = 2084 10 4630
                  kxmax kymax kzmax  = 10 10 10
Setting up cg style minimization ...
  Unit style: metal
Memory usage per processor = 4.56269 Mbytes
Step Temp E_pair E_mol TotEng Press 
     242           10   -18273.882            0    -18272.58   -3408.9744 
     250           10   -18273.897            0   -18272.596   -4451.9322 
     257           10   -18273.899            0   -18272.598   -4529.9931 
Loop time of 0.206659 on 12 procs for 15 steps with 1008 atoms

99.8% CPU use with 12 MPI tasks x no OpenMP threads

Minimization stats:
  Stopping criterion = linesearch alpha is zero
  Energy initial, next-to-last, final = 
        -18273.8815241     -18273.8993306     -18273.8993306
  Force two-norm initial, final = 0.621035 0.0616779
  Force max component initial, final = 0.0480688 0.00671709
  Final line search alpha, max atom move = 1.90735e-06 1.28118e-08
  Iterations, force evaluations = 15 67

MPI task timing breakdown:
Section |  min time  |  avg time  |  max time  |%varavg| %total
---------------------------------------------------------------
Pair    | 0.071659   | 0.07609    | 0.082072   |   1.0 | 36.82
Kspace  | 0.11449    | 0.11596    | 0.11804    |   0.4 | 56.11
Neigh   | 0          | 0          | 0          |   0.0 |  0.00
Comm    | 0.0081861  | 0.013177   | 0.017235   |   2.0 |  6.38
Output  | 2.6941e-05 | 2.7935e-05 | 3.6001e-05 |   0.0 |  0.01
Modify  | 0          | 0          | 0          |   0.0 |  0.00
Other   |            | 0.0014     |            |       |  0.68

Nlocal:    84 ave 88 max 80 min
Histogram: 1 1 1 2 0 3 1 0 2 1
Nghost:    2613.25 ave 2633 max 2593 min
Histogram: 2 1 1 1 1 1 1 0 1 3
Neighs:    18660.5 ave 19617 max 17668 min
Histogram: 1 1 0 2 2 2 1 0 2 1

Total # of neighbors = 223926
Ave neighs/atom = 222.149
Neighbor list builds = 0
Dangerous builds = 0
CR_UPDATE- 23.300680	23.300680	23.300680	0.000000	0.000000	0.000000
For k = 3, applying strain of 1
Changing box ...
  triclinic box = (0 0 0) to (23.3007 23.3007 23.3007) with tilt (0 0 0)
WARNING: Resetting reneighboring criteria during minimization (../min.cpp:168)
Ewald initialization ...
  G vector (1/distance) = 0.365055
  estimated absolute RMS force accuracy = 1.94166e-05
  estimated relative force accuracy = 1.34841e-06
  KSpace vectors: actual max1d max3d = 2084 10 4630
                  kxmax kymax kzmax  = 10 10 10
Setting up cg style minimization ...
  Unit style: metal
Memory usage per processor = 4.56269 Mbytes
Step Temp E_pair E_mol TotEng Press 
     257           10   -18273.795            0   -18272.493   -6862.1231 
     259           10   -18273.795            0   -18272.493   -6859.7984 
Loop time of 0.0780426 on 12 procs for 2 steps with 1008 atoms

99.6% CPU use with 12 MPI tasks x no OpenMP threads

Minimization stats:
  Stopping criterion = linesearch alpha is zero
  Energy initial, next-to-last, final = 
        -18273.7946975     -18273.7947007     -18273.7947007
  Force two-norm initial, final = 0.00476106 0.00318501
  Force max component initial, final = 0.000354564 0.000278131
  Final line search alpha, max atom move = 0.000976562 2.71612e-07
  Iterations, force evaluations = 2 25

MPI task timing breakdown:
Section |  min time  |  avg time  |  max time  |%varavg| %total
---------------------------------------------------------------
Pair    | 0.02697    | 0.028595   | 0.030726   |   0.6 | 36.64
Kspace  | 0.043517   | 0.044229   | 0.044876   |   0.2 | 56.67
Neigh   | 0          | 0          | 0          |   0.0 |  0.00
Comm    | 0.0029852  | 0.0047796  | 0.0062835  |   1.2 |  6.12
Output  | 0          | 0          | 0          |   0.0 |  0.00
Modify  | 0          | 0          | 0          |   0.0 |  0.00
Other   |            | 0.0004389  |            |       |  0.56

Nlocal:    84 ave 88 max 80 min
Histogram: 1 1 1 2 0 3 1 0 2 1
Nghost:    2611.5 ave 2632 max 2590 min
Histogram: 2 1 1 1 1 1 1 0 2 2
Neighs:    18629.7 ave 19581 max 17651 min
Histogram: 1 1 0 2 2 2 1 0 2 1

Total # of neighbors = 223556
Ave neighs/atom = 221.782
Neighbor list builds = 0
Dangerous builds = 0
CR_UPDATE- 23.300680	23.300680	23.300680	0.000000	0.000000	0.000000
For k = 4, applying strain of 1.00167
Changing box ...
  triclinic box = (0 0 -0.0194211) to (23.3007 23.3007 23.3201) with tilt (0 0 0)
WARNING: Resetting reneighboring criteria during minimization (../min.cpp:168)
Ewald initialization ...
  G vector (1/distance) = 0.365044
  estimated absolute RMS force accuracy = 1.94944e-05
  estimated relative force accuracy = 1.35381e-06
  KSpace vectors: actual max1d max3d = 2084 10 4630
                  kxmax kymax kzmax  = 10 10 10
Setting up cg style minimization ...
  Unit style: metal
Memory usage per processor = 4.56269 Mbytes
Step Temp E_pair E_mol TotEng Press 
     259           10   -18273.623            0   -18272.321   -10277.953 
     266           10   -18273.637            0   -18272.335   -9296.4923 
Loop time of 0.170301 on 12 procs for 7 steps with 1008 atoms

100.0% CPU use with 12 MPI tasks x no OpenMP threads

Minimization stats:
  Stopping criterion = linesearch alpha is zero
  Energy initial, next-to-last, final = 
        -18273.6227923     -18273.6365222     -18273.6365222
  Force two-norm initial, final = 0.617231 0.149553
  Force max component initial, final = 0.0471928 0.0135595
  Final line search alpha, max atom move = 4.76837e-07 6.46567e-09
  Iterations, force evaluations = 7 55

MPI task timing breakdown:
Section |  min time  |  avg time  |  max time  |%varavg| %total
---------------------------------------------------------------
Pair    | 0.058856   | 0.062832   | 0.067548   |   0.9 | 36.89
Kspace  | 0.094578   | 0.096252   | 0.097931   |   0.4 | 56.52
Neigh   | 0          | 0          | 0          |   0.0 |  0.00
Comm    | 0.0068104  | 0.010208   | 0.013631   |   1.7 |  5.99
Output  | 0          | 0          | 0          |   0.0 |  0.00
Modify  | 0          | 0          | 0          |   0.0 |  0.00
Other   |            | 0.001009   |            |       |  0.59

Nlocal:    84 ave 88 max 80 min
Histogram: 1 1 1 2 0 3 1 0 2 1
Nghost:    2607.5 ave 2627 max 2583 min
Histogram: 1 1 1 1 2 1 1 0 0 4
Neighs:    18597.6 ave 19538 max 17624 min
Histogram: 1 1 0 3 1 2 1 0 2 1

Total # of neighbors = 223171
Ave neighs/atom = 221.4
Neighbor list builds = 0
Dangerous builds = 0
CR_UPDATE- 23.300680	23.300680	23.300680	0.000000	0.000000	0.000000
For k = 5, applying strain of 1.00333
Changing box ...
  triclinic box = (0 0 -0.0388306) to (23.3007 23.3007 23.3395) with tilt (0 0 0)
WARNING: Resetting reneighboring criteria during minimization (../min.cpp:168)
Ewald initialization ...
  G vector (1/distance) = 0.365032
  estimated absolute RMS force accuracy = 1.95788e-05
  estimated relative force accuracy = 1.35968e-06
  KSpace vectors: actual max1d max3d = 2084 10 4630
                  kxmax kymax kzmax  = 10 10 10
Setting up cg style minimization ...
  Unit style: metal
Memory usage per processor = 4.56269 Mbytes
Step Temp E_pair E_mol TotEng Press 
     266           10   -18273.369            0   -18272.067   -13655.374 
     279           10    -18273.43            0   -18272.128   -11464.939 
Loop time of 0.207507 on 12 procs for 13 steps with 1008 atoms

99.8% CPU use with 12 MPI tasks x no OpenMP threads

Minimization stats:
  Stopping criterion = linesearch alpha is zero
  Energy initial, next-to-last, final = 
        -18273.3689225     -18273.4297781     -18273.4297781
  Force two-norm initial, final = 1.22586 0.146387
  Force max component initial, final = 0.0936884 0.0177812
  Final line search alpha, max atom move = 4.76837e-07 8.47874e-09
  Iterations, force evaluations = 13 67

MPI task timing breakdown:
Section |  min time  |  avg time  |  max time  |%varavg| %total
---------------------------------------------------------------
Pair    | 0.073601   | 0.077426   | 0.080727   |   0.8 | 37.31
Kspace  | 0.11489    | 0.11587    | 0.11883    |   0.3 | 55.84
Neigh   | 0          | 0          | 0          |   0.0 |  0.00
Comm    | 0.0090637  | 0.012852   | 0.016792   |   1.8 |  6.19
Output  | 0          | 0          | 0          |   0.0 |  0.00
Modify  | 0          | 0          | 0          |   0.0 |  0.00
Other   |            | 0.001357   |            |       |  0.65

Nlocal:    84 ave 88 max 80 min
Histogram: 1 1 1 2 0 3 1 0 2 1
Nghost:    2604.25 ave 2624 max 2577 min
Histogram: 1 0 2 1 2 0 2 0 0 4
Neighs:    18568.2 ave 19500 max 17594 min
Histogram: 1 1 0 2 2 2 1 0 2 1

Total # of neighbors = 222819
Ave neighs/atom = 221.051
Neighbor list builds = 0
Dangerous builds = 0
CR_UPDATE- 23.300680	23.300680	23.300680	0.000000	0.000000	0.000000
For k = 6, applying strain of 1.005
Changing box ...
  triclinic box = (0 0 -0.0582517) to (23.3007 23.3007 23.3589) with tilt (0 0 0)
WARNING: Resetting reneighboring criteria during minimization (../min.cpp:168)
Ewald initialization ...
  G vector (1/distance) = 0.365021
  estimated absolute RMS force accuracy = 1.96704e-05
  estimated relative force accuracy = 1.36604e-06
  KSpace vectors: actual max1d max3d = 2084 10 4630
                  kxmax kymax kzmax  = 10 10 10
Setting up cg style minimization ...
  Unit style: metal
Memory usage per processor = 4.56269 Mbytes
Step Temp E_pair E_mol TotEng Press 
     279           10   -18273.036            0   -18271.734   -16999.295 
     293           10   -18273.176            0   -18271.874   -13709.238 
Loop time of 0.216855 on 12 procs for 14 steps with 1008 atoms

100.0% CPU use with 12 MPI tasks x no OpenMP threads

Minimization stats:
  Stopping criterion = linesearch alpha is zero
  Energy initial, next-to-last, final = 
        -18273.0355088     -18273.1756769     -18273.1756769
  Force two-norm initial, final = 1.82834 0.199598
  Force max component initial, final = 0.139866 0.0259732
  Final line search alpha, max atom move = 2.38419e-07 6.1925e-09
  Iterations, force evaluations = 14 71

MPI task timing breakdown:
Section |  min time  |  avg time  |  max time  |%varavg| %total
---------------------------------------------------------------
Pair    | 0.078384   | 0.080942   | 0.084828   |   0.8 | 37.33
Kspace  | 0.12018    | 0.12148    | 0.12406    |   0.3 | 56.02
Neigh   | 0          | 0          | 0          |   0.0 |  0.00
Comm    | 0.0097713  | 0.01304    | 0.016531   |   1.9 |  6.01
Output  | 0          | 0          | 0          |   0.0 |  0.00
Modify  | 0          | 0          | 0          |   0.0 |  0.00
Other   |            | 0.001391   |            |       |  0.64

Nlocal:    84 ave 88 max 80 min
Histogram: 1 1 1 2 0 3 1 0 2 1
Nghost:    2601.25 ave 2623 max 2573 min
Histogram: 1 1 1 1 2 0 2 0 0 4
Neighs:    18538.3 ave 19460 max 17569 min
Histogram: 1 1 0 2 2 2 1 0 2 1

Total # of neighbors = 222460
Ave neighs/atom = 220.694
Neighbor list builds = 0
Dangerous builds = 0
CR_UPDATE- 23.300680	23.300680	23.300680	0.000000	0.000000	0.000000
For k = 0, applying strain of 0.995
Changing box ...
  triclinic box = (0 0 0) to (23.3007 23.3007 23.3007) with tilt (-0.116503 0 0)
WARNING: Resetting reneighboring criteria during minimization (../min.cpp:168)
Ewald initialization ...
  G vector (1/distance) = 0.365055
  estimated absolute RMS force accuracy = 1.94166e-05
  estimated relative force accuracy = 1.34841e-06
  KSpace vectors: actual max1d max3d = 2079 10 4630
                  kxmax kymax kzmax  = 10 10 10
Setting up cg style minimization ...
  Unit style: metal
Memory usage per processor = 4.56269 Mbytes
Step Temp E_pair E_mol TotEng Press 
     293           10   -18273.555            0   -18272.254   -6866.3058 
     300           10   -18273.608            0   -18272.307   -6897.1907 
     308           10   -18273.614            0   -18272.312   -6926.8437 
Loop time of 0.21859 on 12 procs for 15 steps with 1008 atoms

99.8% CPU use with 12 MPI tasks x no OpenMP threads

Minimization stats:
  Stopping criterion = linesearch alpha is zero
  Energy initial, next-to-last, final = 
        -18273.5554656     -18273.6139881     -18273.6139881
  Force two-norm initial, final = 1.23908 0.121675
  Force max component initial, final = 0.126242 0.0117885
  Final line search alpha, max atom move = 4.76837e-07 5.6212e-09
  Iterations, force evaluations = 15 71

MPI task timing breakdown:
Section |  min time  |  avg time  |  max time  |%varavg| %total
---------------------------------------------------------------
Pair    | 0.076077   | 0.08059    | 0.086961   |   1.0 | 36.87
Kspace  | 0.12103    | 0.12294    | 0.12544    |   0.4 | 56.24
Neigh   | 0          | 0          | 0          |   0.0 |  0.00
Comm    | 0.0092494  | 0.013577   | 0.017756   |   1.9 |  6.21
Output  | 2.5988e-05 | 2.7478e-05 | 3.5048e-05 |   0.0 |  0.01
Modify  | 0          | 0          | 0          |   0.0 |  0.00
Other   |            | 0.001451   |            |       |  0.66

Nlocal:    84 ave 88 max 80 min
Histogram: 1 1 1 2 0 3 1 0 2 1
Nghost:    2611.5 ave 2632 max 2590 min
Histogram: 2 1 1 1 1 1 1 0 2 2
Neighs:    18628.6 ave 19581 max 17657 min
Histogram: 1 1 0 3 1 2 1 0 2 1

Total # of neighbors = 223543
Ave neighs/atom = 221.769
Neighbor list builds = 0
Dangerous builds = 0
CR_UPDATE- 23.300680	23.300680	23.300680	0.000000	0.000000	0.000000
For k = 1, applying strain of 0.996667
Changing box ...
  triclinic box = (0 0 0) to (23.3007 23.3007 23.3007) with tilt (-0.077661 0 0)
WARNING: Resetting reneighboring criteria during minimization (../min.cpp:168)
Ewald initialization ...
  G vector (1/distance) = 0.365055
  estimated absolute RMS force accuracy = 1.94166e-05
  estimated relative force accuracy = 1.34841e-06
  KSpace vectors: actual max1d max3d = 2081 10 4630
                  kxmax kymax kzmax  = 10 10 10
Setting up cg style minimization ...
  Unit style: metal
Memory usage per processor = 4.56269 Mbytes
Step Temp E_pair E_mol TotEng Press 
     308           10   -18273.664            0   -18272.362   -6869.6594 
     323           10    -18273.69            0   -18272.388   -6903.9481 
Loop time of 0.258759 on 12 procs for 15 steps with 1008 atoms

99.8% CPU use with 12 MPI tasks x no OpenMP threads

Minimization stats:
  Stopping criterion = linesearch alpha is zero
  Energy initial, next-to-last, final = 
        -18273.6639652      -18273.689534      -18273.689534
  Force two-norm initial, final = 0.825992 0.0801509
  Force max component initial, final = 0.0841908 0.00771605
  Final line search alpha, max atom move = 1.90735e-06 1.47172e-08
  Iterations, force evaluations = 15 85

MPI task timing breakdown:
Section |  min time  |  avg time  |  max time  |%varavg| %total
---------------------------------------------------------------
Pair    | 0.090374   | 0.096341   | 0.10264    |   1.1 | 37.23
Kspace  | 0.14398    | 0.14533    | 0.14808    |   0.3 | 56.16
Neigh   | 0          | 0          | 0          |   0.0 |  0.00
Comm    | 0.010196   | 0.015451   | 0.020785   |   2.2 |  5.97
Output  | 0          | 0          | 0          |   0.0 |  0.00
Modify  | 0          | 0          | 0          |   0.0 |  0.00
Other   |            | 0.001636   |            |       |  0.63

Nlocal:    84 ave 88 max 80 min
Histogram: 1 1 1 2 0 3 1 0 2 1
Nghost:    2611.5 ave 2632 max 2590 min
Histogram: 2 1 1 1 1 1 1 0 2 2
Neighs:    18629.7 ave 19579 max 17655 min
Histogram: 1 1 0 3 1 2 1 0 2 1

Total # of neighbors = 223556
Ave neighs/atom = 221.782
Neighbor list builds = 0
Dangerous builds = 0
CR_UPDATE- 23.300680	23.300680	23.300680	0.000000	0.000000	0.000000
For k = 2, applying strain of 0.998333
Changing box ...
  triclinic box = (0 0 0) to (23.3007 23.3007 23.3007) with tilt (-0.038842 0 0)
WARNING: Resetting reneighboring criteria during minimization (../min.cpp:168)
Ewald initialization ...
  G vector (1/distance) = 0.365055
  estimated absolute RMS force accuracy = 1.94166e-05
  estimated relative force accuracy = 1.34841e-06
  KSpace vectors: actual max1d max3d = 2082 10 4630
                  kxmax kymax kzmax  = 10 10 10
Setting up cg style minimization ...
  Unit style: metal
Memory usage per processor = 4.56269 Mbytes
Step Temp E_pair E_mol TotEng Press 
     323           10   -18273.742            0    -18272.44   -6867.8493 
     328           10   -18273.747            0   -18272.445   -6869.1239 
Loop time of 0.158467 on 12 procs for 5 steps with 1008 atoms

99.9% CPU use with 12 MPI tasks x no OpenMP threads

Minimization stats:
  Stopping criterion = linesearch alpha is zero
  Energy initial, next-to-last, final = 
        -18273.7419252     -18273.7466246     -18273.7466246
  Force two-norm initial, final = 0.413232 0.134397
  Force max component initial, final = 0.0421455 0.0126112
  Final line search alpha, max atom move = 4.76837e-07 6.01351e-09
  Iterations, force evaluations = 5 51

MPI task timing breakdown:
Section |  min time  |  avg time  |  max time  |%varavg| %total
---------------------------------------------------------------
Pair    | 0.056042   | 0.059037   | 0.063357   |   0.8 | 37.25
Kspace  | 0.087475   | 0.089072   | 0.090624   |   0.3 | 56.21
Neigh   | 0          | 0          | 0          |   0.0 |  0.00
Comm    | 0.0067904  | 0.0094401  | 0.012189   |   1.6 |  5.96
Output  | 0          | 0          | 0          |   0.0 |  0.00
Modify  | 0          | 0          | 0          |   0.0 |  0.00
Other   |            | 0.0009177  |            |       |  0.58

Nlocal:    84 ave 88 max 80 min
Histogram: 1 1 1 2 0 3 1 0 2 1
Nghost:    2611.5 ave 2632 max 2590 min
Histogram: 2 1 1 1 1 1 1 0 2 2
Neighs:    18629.8 ave 19583 max 17648 min
Histogram: 1 1 0 3 1 2 1 0 2 1

Total # of neighbors = 223557
Ave neighs/atom = 221.783
Neighbor list builds = 0
Dangerous builds = 0
CR_UPDATE- 23.300680	23.300680	23.300680	0.000000	0.000000	0.000000
For k = 3, applying strain of 1
Changing box ...
  triclinic box = (0 0 0) to (23.3007 23.3007 23.3007) with tilt (0 0 0)
WARNING: Resetting reneighboring criteria during minimization (../min.cpp:168)
Ewald initialization ...
  G vector (1/distance) = 0.365055
  estimated absolute RMS force accuracy = 1.94166e-05
  estimated relative force accuracy = 1.34841e-06
  KSpace vectors: actual max1d max3d = 2084 10 4630
                  kxmax kymax kzmax  = 10 10 10
Setting up cg style minimization ...
  Unit style: metal
Memory usage per processor = 4.56269 Mbytes
Step Temp E_pair E_mol TotEng Press 
     328           10   -18273.795            0   -18272.493   -6862.1231 
     330           10   -18273.795            0   -18272.493   -6859.7984 
Loop time of 0.0785486 on 12 procs for 2 steps with 1008 atoms

99.7% CPU use with 12 MPI tasks x no OpenMP threads

Minimization stats:
  Stopping criterion = linesearch alpha is zero
  Energy initial, next-to-last, final = 
        -18273.7946975     -18273.7947007     -18273.7947007
  Force two-norm initial, final = 0.00476106 0.00318501
  Force max component initial, final = 0.000354564 0.000278131
  Final line search alpha, max atom move = 0.000976562 2.71612e-07
  Iterations, force evaluations = 2 25

MPI task timing breakdown:
Section |  min time  |  avg time  |  max time  |%varavg| %total
---------------------------------------------------------------
Pair    | 0.027887   | 0.029341   | 0.030708   |   0.5 | 37.35
Kspace  | 0.04337    | 0.044147   | 0.045077   |   0.2 | 56.20
Neigh   | 0          | 0          | 0          |   0.0 |  0.00
Comm    | 0.0034273  | 0.0045871  | 0.0058019  |   1.2 |  5.84
Output  | 0          | 0          | 0          |   0.0 |  0.00
Modify  | 0          | 0          | 0          |   0.0 |  0.00
Other   |            | 0.0004735  |            |       |  0.60

Nlocal:    84 ave 88 max 80 min
Histogram: 1 1 1 2 0 3 1 0 2 1
Nghost:    2611.5 ave 2632 max 2590 min
Histogram: 2 1 1 1 1 1 1 0 2 2
Neighs:    18629.7 ave 19581 max 17651 min
Histogram: 1 1 0 2 2 2 1 0 2 1

Total # of neighbors = 223556
Ave neighs/atom = 221.782
Neighbor list builds = 0
Dangerous builds = 0
CR_UPDATE- 23.300680	23.300680	23.300680	0.000000	0.000000	0.000000
For k = 4, applying strain of 1.00167
Changing box ...
  triclinic box = (0 0 0) to (23.3007 23.3007 23.3007) with tilt (0.038842 0 0)
WARNING: Resetting reneighboring criteria during minimization (../min.cpp:168)
Ewald initialization ...
  G vector (1/distance) = 0.365055
  estimated absolute RMS force accuracy = 1.94166e-05
  estimated relative force accuracy = 1.34841e-06
  KSpace vectors: actual max1d max3d = 2082 10 4630
                  kxmax kymax kzmax  = 10 10 10
Setting up cg style minimization ...
  Unit style: metal
Memory usage per processor = 4.56269 Mbytes
Step Temp E_pair E_mol TotEng Press 
     330           10   -18273.817            0   -18272.515   -6851.0848 
     338           10   -18273.823            0   -18272.521   -6835.5528 
Loop time of 0.285976 on 12 procs for 8 steps with 1008 atoms

99.9% CPU use with 12 MPI tasks x no OpenMP threads

Minimization stats:
  Stopping criterion = linesearch alpha is zero
  Energy initial, next-to-last, final = 
        -18273.8167638     -18273.8229928     -18273.8229928
  Force two-norm initial, final = 0.412888 0.0890796
  Force max component initial, final = 0.0420532 0.0114617
  Final line search alpha, max atom move = 9.53674e-07 1.09307e-08
  Iterations, force evaluations = 8 95

MPI task timing breakdown:
Section |  min time  |  avg time  |  max time  |%varavg| %total
---------------------------------------------------------------
Pair    | 0.10185    | 0.10721    | 0.11289    |   0.9 | 37.49
Kspace  | 0.1581     | 0.16051    | 0.16404    |   0.4 | 56.13
Neigh   | 0          | 0          | 0          |   0.0 |  0.00
Comm    | 0.011114   | 0.016633   | 0.022361   |   2.3 |  5.82
Output  | 0          | 0          | 0          |   0.0 |  0.00
Modify  | 0          | 0          | 0          |   0.0 |  0.00
Other   |            | 0.001623   |            |       |  0.57

Nlocal:    84 ave 88 max 80 min
Histogram: 1 1 1 2 0 3 1 0 2 1
Nghost:    2611.5 ave 2632 max 2590 min
Histogram: 2 1 1 1 1 1 1 0 2 2
Neighs:    18629.2 ave 19579 max 17656 min
Histogram: 1 1 0 3 1 2 1 0 2 1

Total # of neighbors = 223550
Ave neighs/atom = 221.776
Neighbor list builds = 0
Dangerous builds = 0
CR_UPDATE- 23.300680	23.300680	23.300680	0.000000	0.000000	0.000000
For k = 5, applying strain of 1.00333
Changing box ...
  triclinic box = (0 0 0) to (23.3007 23.3007 23.3007) with tilt (0.077661 0 0)
WARNING: Resetting reneighboring criteria during minimization (../min.cpp:168)
Ewald initialization ...
  G vector (1/distance) = 0.365055
  estimated absolute RMS force accuracy = 1.94166e-05
  estimated relative force accuracy = 1.34841e-06
  KSpace vectors: actual max1d max3d = 2081 10 4630
                  kxmax kymax kzmax  = 10 10 10
Setting up cg style minimization ...
  Unit style: metal
Memory usage per processor = 4.56269 Mbytes
Step Temp E_pair E_mol TotEng Press 
     338           10   -18273.814            0   -18272.512   -6836.1902 
     346           10   -18273.836            0   -18272.534    -6816.647 
Loop time of 0.179371 on 12 procs for 8 steps with 1008 atoms

100.0% CPU use with 12 MPI tasks x no OpenMP threads

Minimization stats:
  Stopping criterion = linesearch alpha is zero
  Energy initial, next-to-last, final = 
        -18273.8137349     -18273.8356467     -18273.8356467
  Force two-norm initial, final = 0.825645 0.177262
  Force max component initial, final = 0.0841512 0.0220532
  Final line search alpha, max atom move = 2.38419e-07 5.25789e-09
  Iterations, force evaluations = 8 59

MPI task timing breakdown:
Section |  min time  |  avg time  |  max time  |%varavg| %total
---------------------------------------------------------------
Pair    | 0.062778   | 0.066731   | 0.070782   |   0.9 | 37.20
Kspace  | 0.099845   | 0.10091    | 0.10267    |   0.3 | 56.26
Neigh   | 0          | 0          | 0          |   0.0 |  0.00
Comm    | 0.0070379  | 0.010656   | 0.014405   |   1.8 |  5.94
Output  | 0          | 0          | 0          |   0.0 |  0.00
Modify  | 0          | 0          | 0          |   0.0 |  0.00
Other   |            | 0.001074   |            |       |  0.60

Nlocal:    84 ave 88 max 80 min
Histogram: 1 1 1 2 0 3 1 0 2 1
Nghost:    2611.5 ave 2632 max 2590 min
Histogram: 2 1 1 1 1 1 1 0 2 2
Neighs:    18631.8 ave 19576 max 17661 min
Histogram: 1 1 0 3 1 2 1 0 2 1

Total # of neighbors = 223582
Ave neighs/atom = 221.808
Neighbor list builds = 0
Dangerous builds = 0
CR_UPDATE- 23.300680	23.300680	23.300680	0.000000	0.000000	0.000000
For k = 6, applying strain of 1.005
Changing box ...
  triclinic box = (0 0 0) to (23.3007 23.3007 23.3007) with tilt (0.116503 0 0)
WARNING: Resetting reneighboring criteria during minimization (../min.cpp:168)
Ewald initialization ...
  G vector (1/distance) = 0.365055
  estimated absolute RMS force accuracy = 1.94166e-05
  estimated relative force accuracy = 1.34841e-06
  KSpace vectors: actual max1d max3d = 2079 10 4630
                  kxmax kymax kzmax  = 10 10 10
Setting up cg style minimization ...
  Unit style: metal
Memory usage per processor = 4.56269 Mbytes
Step Temp E_pair E_mol TotEng Press 
     346           10   -18273.782            0    -18272.48   -6816.4939 
     350           10   -18273.825            0   -18272.524   -6802.9006 
     369           10   -18273.842            0    -18272.54   -6752.6012 
Loop time of 0.254518 on 12 procs for 23 steps with 1008 atoms

99.7% CPU use with 12 MPI tasks x no OpenMP threads

Minimization stats:
  Stopping criterion = linesearch alpha is zero
  Energy initial, next-to-last, final = 
        -18273.7819704      -18273.841808      -18273.841808
  Force two-norm initial, final = 1.23873 0.06974
  Force max component initial, final = 0.126297 0.00969105
  Final line search alpha, max atom move = 1.90735e-06 1.84842e-08
  Iterations, force evaluations = 23 83

MPI task timing breakdown:
Section |  min time  |  avg time  |  max time  |%varavg| %total
---------------------------------------------------------------
Pair    | 0.088393   | 0.094308   | 0.10062    |   1.1 | 37.05
Kspace  | 0.14128    | 0.14337    | 0.14583    |   0.4 | 56.33
Neigh   | 0          | 0          | 0          |   0.0 |  0.00
Comm    | 0.010115   | 0.015144   | 0.020338   |   2.1 |  5.95
Output  | 2.5988e-05 | 2.7577e-05 | 3.6001e-05 |   0.1 |  0.01
Modify  | 0          | 0          | 0          |   0.0 |  0.00
Other   |            | 0.001665   |            |       |  0.65

Nlocal:    84 ave 88 max 80 min
Histogram: 1 1 1 2 0 3 1 0 2 1
Nghost:    2611.5 ave 2632 max 2590 min
Histogram: 2 1 1 1 1 1 1 0 2 2
Neighs:    18631.8 ave 19575 max 17666 min
Histogram: 1 1 0 3 1 2 1 0 2 1

Total # of neighbors = 223581
Ave neighs/atom = 221.807
Neighbor list builds = 0
Dangerous builds = 0
CR_UPDATE- 23.300680	23.300680	23.300680	0.000000	0.000000	0.000000
For k = 0, applying strain of 0.995
Changing box ...
  triclinic box = (0 0 0) to (23.3007 23.3007 23.3007) with tilt (0 -0.116503 0)
WARNING: Resetting reneighboring criteria during minimization (../min.cpp:168)
Ewald initialization ...
  G vector (1/distance) = 0.365055
  estimated absolute RMS force accuracy = 1.94166e-05
  estimated relative force accuracy = 1.34841e-06
  KSpace vectors: actual max1d max3d = 2079 10 4630
                  kxmax kymax kzmax  = 10 10 10
Setting up cg style minimization ...
  Unit style: metal
Memory usage per processor = 4.56269 Mbytes
Step Temp E_pair E_mol TotEng Press 
     369           10   -18273.658            0   -18272.356   -6770.7652 
     383           10   -18273.714            0   -18272.412   -6726.1194 
Loop time of 0.335548 on 12 procs for 14 steps with 1008 atoms

99.9% CPU use with 12 MPI tasks x no OpenMP threads

Minimization stats:
  Stopping criterion = linesearch alpha is zero
  Energy initial, next-to-last, final = 
        -18273.6580628     -18273.7141046     -18273.7141046
  Force two-norm initial, final = 1.24352 0.134156
  Force max component initial, final = 0.115111 0.0133084
  Final line search alpha, max atom move = 4.76837e-07 6.34592e-09
  Iterations, force evaluations = 14 111

MPI task timing breakdown:
Section |  min time  |  avg time  |  max time  |%varavg| %total
---------------------------------------------------------------
Pair    | 0.1173     | 0.1251     | 0.13347    |   1.2 | 37.28
Kspace  | 0.18636    | 0.18917    | 0.19275    |   0.4 | 56.38
Neigh   | 0          | 0          | 0          |   0.0 |  0.00
Comm    | 0.012831   | 0.01935    | 0.026169   |   2.5 |  5.77
Output  | 0          | 0          | 0          |   0.0 |  0.00
Modify  | 0          | 0          | 0          |   0.0 |  0.00
Other   |            | 0.001931   |            |       |  0.58

Nlocal:    84 ave 88 max 80 min
Histogram: 1 1 1 2 0 3 1 0 2 1
Nghost:    2611.5 ave 2632 max 2590 min
Histogram: 2 1 1 1 1 1 1 0 2 2
Neighs:    18627.5 ave 19568 max 17651 min
Histogram: 1 1 0 2 2 2 1 0 2 1

Total # of neighbors = 223530
Ave neighs/atom = 221.756
Neighbor list builds = 0
Dangerous builds = 0
CR_UPDATE- 23.300680	23.300680	23.300680	0.000000	0.000000	0.000000
For k = 1, applying strain of 0.996667
Changing box ...
  triclinic box = (0 0 0) to (23.3007 23.3007 23.3007) with tilt (0 -0.077661 0)
WARNING: Resetting reneighboring criteria during minimization (../min.cpp:168)
Ewald initialization ...
  G vector (1/distance) = 0.365055
  estimated absolute RMS force accuracy = 1.94166e-05
  estimated relative force accuracy = 1.34841e-06
  KSpace vectors: actual max1d max3d = 2081 10 4630
                  kxmax kymax kzmax  = 10 10 10
Setting up cg style minimization ...
  Unit style: metal
Memory usage per processor = 4.56269 Mbytes
Step Temp E_pair E_mol TotEng Press 
     383           10   -18273.729            0   -18272.427   -6805.6318 
     394           10   -18273.754            0   -18272.453   -6788.0006 
Loop time of 0.190439 on 12 procs for 11 steps with 1008 atoms

100.3% CPU use with 12 MPI tasks x no OpenMP threads

Minimization stats:
  Stopping criterion = linesearch alpha is zero
  Energy initial, next-to-last, final = 
        -18273.7289637     -18273.7544139     -18273.7544139
  Force two-norm initial, final = 0.828975 0.12222
  Force max component initial, final = 0.0767072 0.0166736
  Final line search alpha, max atom move = 4.76837e-07 7.9506e-09
  Iterations, force evaluations = 11 63

MPI task timing breakdown:
Section |  min time  |  avg time  |  max time  |%varavg| %total
---------------------------------------------------------------
Pair    | 0.066887   | 0.07079    | 0.075131   |   0.8 | 37.17
Kspace  | 0.10524    | 0.10707    | 0.10896    |   0.3 | 56.22
Neigh   | 0          | 0          | 0          |   0.0 |  0.00
Comm    | 0.0076675  | 0.011417   | 0.015351   |   1.9 |  5.99
Output  | 0          | 0          | 0          |   0.0 |  0.00
Modify  | 0          | 0          | 0          |   0.0 |  0.00
Other   |            | 0.001165   |            |       |  0.61

Nlocal:    84 ave 88 max 80 min
Histogram: 1 1 1 2 0 3 1 0 2 1
Nghost:    2611.5 ave 2632 max 2590 min
Histogram: 2 1 1 1 1 1 1 0 2 2
Neighs:    18629.8 ave 19576 max 17647 min
Histogram: 1 1 0 2 2 2 1 0 2 1

Total # of neighbors = 223557
Ave neighs/atom = 221.783
Neighbor list builds = 0
Dangerous builds = 0
CR_UPDATE- 23.300680	23.300680	23.300680	0.000000	0.000000	0.000000
For k = 2, applying strain of 0.998333
Changing box ...
  triclinic box = (0 0 0) to (23.3007 23.3007 23.3007) with tilt (0 -0.038842 0)
WARNING: Resetting reneighboring criteria during minimization (../min.cpp:168)
Ewald initialization ...
  G vector (1/distance) = 0.365055
  estimated absolute RMS force accuracy = 1.94166e-05
  estimated relative force accuracy = 1.34841e-06
  KSpace vectors: actual max1d max3d = 2082 10 4630
                  kxmax kymax kzmax  = 10 10 10
Setting up cg style minimization ...
  Unit style: metal
Memory usage per processor = 4.56269 Mbytes
Step Temp E_pair E_mol TotEng Press 
     394           10   -18273.776            0   -18272.475   -6836.5502 
     400           10   -18273.783            0   -18272.482   -6822.9641 
     401           10   -18273.783            0   -18272.482   -6822.9641 
Loop time of 0.163999 on 12 procs for 7 steps with 1008 atoms

99.8% CPU use with 12 MPI tasks x no OpenMP threads

Minimization stats:
  Stopping criterion = linesearch alpha is zero
  Energy initial, next-to-last, final = 
        -18273.7764305     -18273.7832002     -18273.7832002
  Force two-norm initial, final = 0.414724 0.093978
  Force max component initial, final = 0.0383444 0.0108609
  Final line search alpha, max atom move = 9.53674e-07 1.03577e-08
  Iterations, force evaluations = 7 53

MPI task timing breakdown:
Section |  min time  |  avg time  |  max time  |%varavg| %total
---------------------------------------------------------------
Pair    | 0.056998   | 0.060741   | 0.064748   |   0.9 | 37.04
Kspace  | 0.090995   | 0.092452   | 0.094057   |   0.4 | 56.37
Neigh   | 0          | 0          | 0          |   0.0 |  0.00
Comm    | 0.0066783  | 0.0098164  | 0.013089   |   1.7 |  5.99
Output  | 2.408e-05  | 2.5948e-05 | 3.5048e-05 |   0.1 |  0.02
Modify  | 0          | 0          | 0          |   0.0 |  0.00
Other   |            | 0.0009642  |            |       |  0.59

Nlocal:    84 ave 88 max 80 min
Histogram: 1 1 1 2 0 3 1 0 2 1
Nghost:    2611.5 ave 2632 max 2590 min
Histogram: 2 1 1 1 1 1 1 0 2 2
Neighs:    18629.1 ave 19582 max 17645 min
Histogram: 1 1 0 2 2 2 1 0 2 1

Total # of neighbors = 223549
Ave neighs/atom = 221.775
Neighbor list builds = 0
Dangerous builds = 0
CR_UPDATE- 23.300680	23.300680	23.300680	0.000000	0.000000	0.000000
For k = 3, applying strain of 1
Changing box ...
  triclinic box = (0 0 0) to (23.3007 23.3007 23.3007) with tilt (0 0 0)
WARNING: Resetting reneighboring criteria during minimization (../min.cpp:168)
Ewald initialization ...
  G vector (1/distance) = 0.365055
  estimated absolute RMS force accuracy = 1.94166e-05
  estimated relative force accuracy = 1.34841e-06
  KSpace vectors: actual max1d max3d = 2084 10 4630
                  kxmax kymax kzmax  = 10 10 10
Setting up cg style minimization ...
  Unit style: metal
Memory usage per processor = 4.56269 Mbytes
Step Temp E_pair E_mol TotEng Press 
     401           10   -18273.795            0   -18272.493   -6862.1231 
     403           10   -18273.795            0   -18272.493   -6859.7984 
Loop time of 0.0787881 on 12 procs for 2 steps with 1008 atoms

99.3% CPU use with 12 MPI tasks x no OpenMP threads

Minimization stats:
  Stopping criterion = linesearch alpha is zero
  Energy initial, next-to-last, final = 
        -18273.7946975     -18273.7947007     -18273.7947007
  Force two-norm initial, final = 0.00476106 0.00318501
  Force max component initial, final = 0.000354564 0.000278131
  Final line search alpha, max atom move = 0.000976562 2.71612e-07
  Iterations, force evaluations = 2 25

MPI task timing breakdown:
Section |  min time  |  avg time  |  max time  |%varavg| %total
---------------------------------------------------------------
Pair    | 0.0273     | 0.029089   | 0.030915   |   0.6 | 36.92
Kspace  | 0.04346    | 0.044563   | 0.045673   |   0.4 | 56.56
Neigh   | 0          | 0          | 0          |   0.0 |  0.00
Comm    | 0.0034873  | 0.0046942  | 0.0060105  |   1.2 |  5.96
Output  | 0          | 0          | 0          |   0.0 |  0.00
Modify  | 0          | 0          | 0          |   0.0 |  0.00
Other   |            | 0.0004416  |            |       |  0.56

Nlocal:    84 ave 88 max 80 min
Histogram: 1 1 1 2 0 3 1 0 2 1
Nghost:    2611.5 ave 2632 max 2590 min
Histogram: 2 1 1 1 1 1 1 0 2 2
Neighs:    18629.7 ave 19581 max 17651 min
Histogram: 1 1 0 2 2 2 1 0 2 1

Total # of neighbors = 223556
Ave neighs/atom = 221.782
Neighbor list builds = 0
Dangerous builds = 0
CR_UPDATE- 23.300680	23.300680	23.300680	0.000000	0.000000	0.000000
For k = 4, applying strain of 1.00167
Changing box ...
  triclinic box = (0 0 0) to (23.3007 23.3007 23.3007) with tilt (0 0.038842 0)
WARNING: Resetting reneighboring criteria during minimization (../min.cpp:168)
Ewald initialization ...
  G vector (1/distance) = 0.365055
  estimated absolute RMS force accuracy = 1.94166e-05
  estimated relative force accuracy = 1.34841e-06
  KSpace vectors: actual max1d max3d = 2082 10 4630
                  kxmax kymax kzmax  = 10 10 10
Setting up cg style minimization ...
  Unit style: metal
Memory usage per processor = 4.56269 Mbytes
Step Temp E_pair E_mol TotEng Press 
     403           10   -18273.785            0   -18272.483   -6882.5337 
     408           10    -18273.79            0   -18272.488   -6880.5514 
Loop time of 0.155346 on 12 procs for 5 steps with 1008 atoms

99.7% CPU use with 12 MPI tasks x no OpenMP threads

Minimization stats:
  Stopping criterion = linesearch alpha is zero
  Energy initial, next-to-last, final = 
        -18273.7845405     -18273.7897837     -18273.7897837
  Force two-norm initial, final = 0.41456 0.129424
  Force max component initial, final = 0.0383619 0.0158221
  Final line search alpha, max atom move = 4.76837e-07 7.54457e-09
  Iterations, force evaluations = 5 51

MPI task timing breakdown:
Section |  min time  |  avg time  |  max time  |%varavg| %total
---------------------------------------------------------------
Pair    | 0.055556   | 0.058242   | 0.061196   |   0.7 | 37.49
Kspace  | 0.085926   | 0.087194   | 0.088889   |   0.3 | 56.13
Neigh   | 0          | 0          | 0          |   0.0 |  0.00
Comm    | 0.0060863  | 0.0089953  | 0.012012   |   1.7 |  5.79
Output  | 0          | 0          | 0          |   0.0 |  0.00
Modify  | 0          | 0          | 0          |   0.0 |  0.00
Other   |            | 0.0009141  |            |       |  0.59

Nlocal:    84 ave 88 max 80 min
Histogram: 1 1 1 2 0 3 1 0 2 1
Nghost:    2611.5 ave 2632 max 2590 min
Histogram: 2 1 1 1 1 1 1 0 2 2
Neighs:    18630.2 ave 19578 max 17656 min
Histogram: 1 1 0 3 1 2 1 0 2 1

Total # of neighbors = 223562
Ave neighs/atom = 221.788
Neighbor list builds = 0
Dangerous builds = 0
CR_UPDATE- 23.300680	23.300680	23.300680	0.000000	0.000000	0.000000
For k = 5, applying strain of 1.00333
Changing box ...
  triclinic box = (0 0 0) to (23.3007 23.3007 23.3007) with tilt (0 0.077661 0)
WARNING: Resetting reneighboring criteria during minimization (../min.cpp:168)
Ewald initialization ...
  G vector (1/distance) = 0.365055
  estimated absolute RMS force accuracy = 1.94166e-05
  estimated relative force accuracy = 1.34841e-06
  KSpace vectors: actual max1d max3d = 2081 10 4630
                  kxmax kymax kzmax  = 10 10 10
Setting up cg style minimization ...
  Unit style: metal
Memory usage per processor = 4.56269 Mbytes
Step Temp E_pair E_mol TotEng Press 
     408           10   -18273.746            0   -18272.445   -6897.9192 
     418           10    -18273.77            0   -18272.469    -6907.712 
Loop time of 0.186001 on 12 procs for 10 steps with 1008 atoms

99.9% CPU use with 12 MPI tasks x no OpenMP threads

Minimization stats:
  Stopping criterion = linesearch alpha is zero
  Energy initial, next-to-last, final = 
        -18273.7461524     -18273.7702773     -18273.7702773
  Force two-norm initial, final = 0.82897 0.134887
  Force max component initial, final = 0.0766576 0.0185483
  Final line search alpha, max atom move = 4.76837e-07 8.84452e-09
  Iterations, force evaluations = 10 61

MPI task timing breakdown:
Section |  min time  |  avg time  |  max time  |%varavg| %total
---------------------------------------------------------------
Pair    | 0.064796   | 0.069167   | 0.073965   |   1.0 | 37.19
Kspace  | 0.10369    | 0.10487    | 0.10684    |   0.3 | 56.38
Neigh   | 0          | 0          | 0          |   0.0 |  0.00
Comm    | 0.0069129  | 0.010862   | 0.014905   |   2.0 |  5.84
Output  | 0          | 0          | 0          |   0.0 |  0.00
Modify  | 0          | 0          | 0          |   0.0 |  0.00
Other   |            | 0.001102   |            |       |  0.59

Nlocal:    84 ave 88 max 80 min
Histogram: 1 1 1 2 0 3 1 0 2 1
Nghost:    2611.5 ave 2632 max 2590 min
Histogram: 2 1 1 1 1 1 1 0 2 2
Neighs:    18632.6 ave 19578 max 17659 min
Histogram: 1 1 0 3 1 2 1 0 2 1

Total # of neighbors = 223591
Ave neighs/atom = 221.816
Neighbor list builds = 0
Dangerous builds = 0
CR_UPDATE- 23.300680	23.300680	23.300680	0.000000	0.000000	0.000000
For k = 6, applying strain of 1.005
Changing box ...
  triclinic box = (0 0 0) to (23.3007 23.3007 23.3007) with tilt (0 0.116503 0)
WARNING: Resetting reneighboring criteria during minimization (../min.cpp:168)
Ewald initialization ...
  G vector (1/distance) = 0.365055
  estimated absolute RMS force accuracy = 1.94166e-05
  estimated relative force accuracy = 1.34841e-06
  KSpace vectors: actual max1d max3d = 2079 10 4630
                  kxmax kymax kzmax  = 10 10 10
Setting up cg style minimization ...
  Unit style: metal
Memory usage per processor = 4.56269 Mbytes
Step Temp E_pair E_mol TotEng Press 
     418           10   -18273.678            0   -18272.377   -6907.8964 
     431           10   -18273.733            0   -18272.431   -6948.7371 
Loop time of 0.332136 on 12 procs for 13 steps with 1008 atoms

99.9% CPU use with 12 MPI tasks x no OpenMP threads

Minimization stats:
  Stopping criterion = linesearch alpha is zero
  Energy initial, next-to-last, final = 
        -18273.6782114     -18273.7329671     -18273.7329671
  Force two-norm initial, final = 1.24377 0.128437
  Force max component initial, final = 0.114961 0.0136482
  Final line search alpha, max atom move = 4.76837e-07 6.50796e-09
  Iterations, force evaluations = 13 110

MPI task timing breakdown:
Section |  min time  |  avg time  |  max time  |%varavg| %total
---------------------------------------------------------------
Pair    | 0.11539    | 0.12327    | 0.13211    |   1.2 | 37.12
Kspace  | 0.18447    | 0.18716    | 0.1905     |   0.4 | 56.35
Neigh   | 0          | 0          | 0          |   0.0 |  0.00
Comm    | 0.012976   | 0.019786   | 0.026782   |   2.5 |  5.96
Output  | 0          | 0          | 0          |   0.0 |  0.00
Modify  | 0          | 0          | 0          |   0.0 |  0.00
Other   |            | 0.001919   |            |       |  0.58

Nlocal:    84 ave 88 max 80 min
Histogram: 1 1 1 2 0 3 1 0 2 1
[...]
  KSpace vectors: actual max1d max3d = 2081 10 4630
                  kxmax kymax kzmax  = 10 10 10
Setting up cg style minimization ...
  Unit style: metal
Memory usage per processor = 4.56269 Mbytes
Step Temp E_pair E_mol TotEng Press 
     913           10   -18273.733            0   -18272.431   -6379.3071 
     927           10    -18273.76            0   -18272.458   -6392.8217 
Loop time of 0.407289 on 12 procs for 14 steps with 1008 atoms

99.9% CPU use with 12 MPI tasks x no OpenMP threads

Minimization stats:
  Stopping criterion = linesearch alpha is zero
  Energy initial, next-to-last, final = 
         -18273.733074     -18273.7598209     -18273.7598209
  Force two-norm initial, final = 0.830394 0.0834196
  Force max component initial, final = 0.0773227 0.00792499
  Final line search alpha, max atom move = 9.53674e-07 7.55786e-09
  Iterations, force evaluations = 14 133

MPI task timing breakdown:
Section |  min time  |  avg time  |  max time  |%varavg| %total
---------------------------------------------------------------
Pair    | 0.14388    | 0.15154    | 0.16184    |   1.2 | 37.21
Kspace  | 0.22525    | 0.22883    | 0.23324    |   0.6 | 56.18
Neigh   | 0          | 0          | 0          |   0.0 |  0.00
Comm    | 0.016483   | 0.024517   | 0.031188   |   2.3 |  6.02
Output  | 0          | 0          | 0          |   0.0 |  0.00
Modify  | 0          | 0          | 0          |   0.0 |  0.00
Other   |            | 0.002408   |            |       |  0.59

Nlocal:    84 ave 89 max 80 min
Histogram: 1 0 2 1 4 2 1 0 0 1
Nghost:    2612.33 ave 2637 max 2582 min
Histogram: 1 0 3 0 1 2 1 0 2 2
Neighs:    18631.5 ave 19810 max 17666 min
Histogram: 1 0 2 2 2 3 1 0 0 1

Total # of neighbors = 223578
Ave neighs/atom = 221.804
Neighbor list builds = 0
Dangerous builds = 0
CR_UPDATE- 23.300680	23.300680	23.300680	0.000000	0.000000	0.000000
For k = 6, applying strain of 1.005
Changing box ...
  triclinic box = (0 0 0) to (23.3007 23.3007 23.3007) with tilt (0 0.116503 0)
WARNING: Resetting reneighboring criteria during minimization (../min.cpp:168)
Ewald initialization ...
  G vector (1/distance) = 0.365055
  estimated absolute RMS force accuracy = 1.94166e-05
  estimated relative force accuracy = 1.34841e-06
  KSpace vectors: actual max1d max3d = 2079 10 4630
                  kxmax kymax kzmax  = 10 10 10
Setting up cg style minimization ...
  Unit style: metal
Memory usage per processor = 4.56269 Mbytes
Step Temp E_pair E_mol TotEng Press 
     927           10   -18273.673            0   -18272.371   -6391.9533 
     947           10   -18273.733            0   -18272.431   -6428.8853 
Loop time of 0.338646 on 12 procs for 20 steps with 1008 atoms

99.9% CPU use with 12 MPI tasks x no OpenMP threads

Minimization stats:
  Stopping criterion = linesearch alpha is zero
  Energy initial, next-to-last, final = 
        -18273.6728302       -18273.73305       -18273.73305
  Force two-norm initial, final = 1.24586 0.0756807
  Force max component initial, final = 0.115928 0.00704485
  Final line search alpha, max atom move = 1.90735e-06 1.3437e-08
  Iterations, force evaluations = 20 111

MPI task timing breakdown:
Section |  min time  |  avg time  |  max time  |%varavg| %total
---------------------------------------------------------------
Pair    | 0.11938    | 0.12613    | 0.13389    |   1.1 | 37.24
Kspace  | 0.18733    | 0.19009    | 0.19359    |   0.4 | 56.13
Neigh   | 0          | 0          | 0          |   0.0 |  0.00
Comm    | 0.012587   | 0.020352   | 0.02689    |   2.3 |  6.01
Output  | 0          | 0          | 0          |   0.0 |  0.00
Modify  | 0          | 0          | 0          |   0.0 |  0.00
Other   |            | 0.002078   |            |       |  0.61

Nlocal:    84 ave 89 max 80 min
Histogram: 1 0 2 1 4 2 1 0 0 1
Nghost:    2612.33 ave 2637 max 2582 min
Histogram: 1 0 3 0 1 2 1 0 2 2
Neighs:    18635 ave 19816 max 17672 min
Histogram: 1 0 2 2 2 3 1 0 0 1

Total # of neighbors = 223620
Ave neighs/atom = 221.845
Neighbor list builds = 0
Dangerous builds = 0
CR_UPDATE- 23.300680	23.300680	23.300680	0.000000	0.000000	0.000000
For k = 0, applying strain of 0.995
Changing box ...
  triclinic box = (0 0 0) to (23.3007 23.3007 23.3007) with tilt (0 0 -0.116503)
WARNING: Resetting reneighboring criteria during minimization (../min.cpp:168)
Ewald initialization ...
  G vector (1/distance) = 0.365055
  estimated absolute RMS force accuracy = 1.94166e-05
  estimated relative force accuracy = 1.34841e-06
  KSpace vectors: actual max1d max3d = 2079 10 4630
                  kxmax kymax kzmax  = 10 10 10
Setting up cg style minimization ...
  Unit style: metal
Memory usage per processor = 4.56269 Mbytes
Step Temp E_pair E_mol TotEng Press 
     947           10    -18273.86            0   -18272.558   -6332.0124 
     950           10   -18273.903            0   -18272.601   -6241.8354 
     963           10   -18273.922            0    -18272.62   -6076.7832 
Loop time of 0.224936 on 12 procs for 16 steps with 1008 atoms

99.9% CPU use with 12 MPI tasks x no OpenMP threads

Minimization stats:
  Stopping criterion = linesearch alpha is zero
  Energy initial, next-to-last, final = 
         -18273.859559     -18273.9219016     -18273.9219016
  Force two-norm initial, final = 1.25225 0.139855
  Force max component initial, final = 0.115973 0.0195294
  Final line search alpha, max atom move = 4.76837e-07 9.31233e-09
  Iterations, force evaluations = 16 73

MPI task timing breakdown:
Section |  min time  |  avg time  |  max time  |%varavg| %total
---------------------------------------------------------------
Pair    | 0.080282   | 0.083918   | 0.088757   |   0.8 | 37.31
Kspace  | 0.12482    | 0.12646    | 0.12911    |   0.4 | 56.22
Neigh   | 0          | 0          | 0          |   0.0 |  0.00
Comm    | 0.0093522  | 0.013086   | 0.016132   |   1.8 |  5.82
Output  | 2.8849e-05 | 2.9882e-05 | 3.8862e-05 |   0.1 |  0.01
Modify  | 0          | 0          | 0          |   0.0 |  0.00
Other   |            | 0.001447   |            |       |  0.64

Nlocal:    84 ave 89 max 80 min
Histogram: 1 0 2 1 4 2 1 0 0 1
Nghost:    2612.33 ave 2637 max 2582 min
Histogram: 1 0 3 0 1 2 1 0 2 2
Neighs:    18631.5 ave 19815 max 17658 min
Histogram: 1 0 2 2 1 4 1 0 0 1

Total # of neighbors = 223578
Ave neighs/atom = 221.804
Neighbor list builds = 0
Dangerous builds = 0
CR_UPDATE- 23.300680	23.300680	23.300680	0.000000	0.000000	0.000000
For k = 1, applying strain of 0.996667
Changing box ...
  triclinic box = (0 0 0) to (23.3007 23.3007 23.3007) with tilt (0 0 -0.077661)
WARNING: Resetting reneighboring criteria during minimization (../min.cpp:168)
Ewald initialization ...
  G vector (1/distance) = 0.365055
  estimated absolute RMS force accuracy = 1.94166e-05
  estimated relative force accuracy = 1.34841e-06
  KSpace vectors: actual max1d max3d = 2081 10 4630
                  kxmax kymax kzmax  = 10 10 10
Setting up cg style minimization ...
  Unit style: metal
Memory usage per processor = 4.56269 Mbytes
Step Temp E_pair E_mol TotEng Press 
     963           10   -18273.861            0    -18272.56   -6340.0024 
     978           10   -18273.886            0   -18272.584   -6169.2742 
Loop time of 0.212699 on 12 procs for 15 steps with 1008 atoms

99.6% CPU use with 12 MPI tasks x no OpenMP threads

Minimization stats:
  Stopping criterion = linesearch alpha is zero
  Energy initial, next-to-last, final = 
        -18273.8612007     -18273.8856667     -18273.8856667
  Force two-norm initial, final = 0.834783 0.099357
  Force max component initial, final = 0.0772603 0.0175933
  Final line search alpha, max atom move = 9.53674e-07 1.67783e-08
  Iterations, force evaluations = 15 69

MPI task timing breakdown:
Section |  min time  |  avg time  |  max time  |%varavg| %total
---------------------------------------------------------------
Pair    | 0.075195   | 0.079256   | 0.084473   |   0.9 | 37.26
Kspace  | 0.11822    | 0.11968    | 0.12192    |   0.4 | 56.27
Neigh   | 0          | 0          | 0          |   0.0 |  0.00
Comm    | 0.0082633  | 0.012394   | 0.015988   |   1.7 |  5.83
Output  | 0          | 0          | 0          |   0.0 |  0.00
Modify  | 0          | 0          | 0          |   0.0 |  0.00
Other   |            | 0.001367   |            |       |  0.64

Nlocal:    84 ave 89 max 80 min
Histogram: 1 0 2 1 4 2 1 0 0 1
Nghost:    2612.33 ave 2637 max 2582 min
Histogram: 1 0 3 0 1 2 1 0 2 2
Neighs:    18631.2 ave 19817 max 17652 min
Histogram: 1 0 2 2 1 4 1 0 0 1

Total # of neighbors = 223575
Ave neighs/atom = 221.801
Neighbor list builds = 0
Dangerous builds = 0
CR_UPDATE- 23.300680	23.300680	23.300680	0.000000	0.000000	0.000000
For k = 2, applying strain of 0.998333
Changing box ...
  triclinic box = (0 0 0) to (23.3007 23.3007 23.3007) with tilt (0 0 -0.038842)
WARNING: Resetting reneighboring criteria during minimization (../min.cpp:168)
Ewald initialization ...
  G vector (1/distance) = 0.365055
  estimated absolute RMS force accuracy = 1.94166e-05
  estimated relative force accuracy = 1.34841e-06
  KSpace vectors: actual max1d max3d = 2082 10 4630
                  kxmax kymax kzmax  = 10 10 10
Setting up cg style minimization ...
  Unit style: metal
Memory usage per processor = 4.56269 Mbytes
Step Temp E_pair E_mol TotEng Press 
     978           10   -18273.832            0    -18272.53   -6342.4286 
     987           10   -18273.839            0   -18272.537      -6273.3 
Loop time of 0.176955 on 12 procs for 9 steps with 1008 atoms

99.9% CPU use with 12 MPI tasks x no OpenMP threads

Minimization stats:
  Stopping criterion = linesearch alpha is zero
  Energy initial, next-to-last, final = 
        -18273.8317149     -18273.8385492     -18273.8385492
  Force two-norm initial, final = 0.417605 0.081484
  Force max component initial, final = 0.0385891 0.00759359
  Final line search alpha, max atom move = 9.53674e-07 7.24181e-09
  Iterations, force evaluations = 9 57

MPI task timing breakdown:
Section |  min time  |  avg time  |  max time  |%varavg| %total
---------------------------------------------------------------
Pair    | 0.061646   | 0.065495   | 0.070692   |   0.9 | 37.01
Kspace  | 0.098027   | 0.099487   | 0.10135    |   0.3 | 56.22
Neigh   | 0          | 0          | 0          |   0.0 |  0.00
Comm    | 0.0066009  | 0.010855   | 0.014484   |   1.8 |  6.13
Output  | 0          | 0          | 0          |   0.0 |  0.00
Modify  | 0          | 0          | 0          |   0.0 |  0.00
Other   |            | 0.001119   |            |       |  0.63

Nlocal:    84 ave 89 max 80 min
Histogram: 1 0 2 1 4 2 1 0 0 1
Nghost:    2612.33 ave 2637 max 2582 min
Histogram: 1 0 3 0 1 2 1 0 2 2
Neighs:    18631.8 ave 19811 max 17654 min
Histogram: 1 0 2 2 1 4 1 0 0 1

Total # of neighbors = 223582
Ave neighs/atom = 221.808
Neighbor list builds = 0
Dangerous builds = 0
CR_UPDATE- 23.300680	23.300680	23.300680	0.000000	0.000000	0.000000
For k = 3, applying strain of 1
Changing box ...
  triclinic box = (0 0 0) to (23.3007 23.3007 23.3007) with tilt (0 0 0)
WARNING: Resetting reneighboring criteria during minimization (../min.cpp:168)
Ewald initialization ...
  G vector (1/distance) = 0.365055
  estimated absolute RMS force accuracy = 1.94166e-05
  estimated relative force accuracy = 1.34841e-06
  KSpace vectors: actual max1d max3d = 2084 10 4630
                  kxmax kymax kzmax  = 10 10 10
Setting up cg style minimization ...
  Unit style: metal
Memory usage per processor = 4.56269 Mbytes
Step Temp E_pair E_mol TotEng Press 
     987           10   -18273.772            0    -18272.47   -6339.4907 
     989           10   -18273.772            0    -18272.47   -6337.1778 
Loop time of 0.0721606 on 12 procs for 2 steps with 1008 atoms

100.3% CPU use with 12 MPI tasks x no OpenMP threads

Minimization stats:
  Stopping criterion = linesearch alpha is zero
  Energy initial, next-to-last, final = 
        -18273.7716688      -18273.771682      -18273.771682
  Force two-norm initial, final = 0.00473512 0.00317128
  Force max component initial, final = 0.000363245 0.000294706
  Final line search alpha, max atom move = 0.000976562 2.87799e-07
  Iterations, force evaluations = 2 23

MPI task timing breakdown:
Section |  min time  |  avg time  |  max time  |%varavg| %total
---------------------------------------------------------------
Pair    | 0.02521    | 0.026825   | 0.028676   |   0.6 | 37.17
Kspace  | 0.040015   | 0.040614   | 0.041404   |   0.2 | 56.28
Neigh   | 0          | 0          | 0          |   0.0 |  0.00
Comm    | 0.0025656  | 0.0042787  | 0.0057116  |   1.1 |  5.93
Output  | 0          | 0          | 0          |   0.0 |  0.00
Modify  | 0          | 0          | 0          |   0.0 |  0.00
Other   |            | 0.0004425  |            |       |  0.61

Nlocal:    84 ave 89 max 80 min
Histogram: 1 0 2 1 4 2 1 0 0 1
Nghost:    2612.33 ave 2637 max 2582 min
Histogram: 1 0 3 0 1 2 1 0 2 2
Neighs:    18630.9 ave 19812 max 17661 min
Histogram: 1 0 2 2 2 3 1 0 0 1

Total # of neighbors = 223571
Ave neighs/atom = 221.797
Neighbor list builds = 0
Dangerous builds = 0
CR_UPDATE- 23.300680	23.300680	23.300680	0.000000	0.000000	0.000000
For k = 4, applying strain of 1.00167
Changing box ...
  triclinic box = (0 0 0) to (23.3007 23.3007 23.3007) with tilt (0 0 0.038842)
WARNING: Resetting reneighboring criteria during minimization (../min.cpp:168)
Ewald initialization ...
  G vector (1/distance) = 0.365055
  estimated absolute RMS force accuracy = 1.94166e-05
  estimated relative force accuracy = 1.34841e-06
  KSpace vectors: actual max1d max3d = 2082 10 4630
                  kxmax kymax kzmax  = 10 10 10
Setting up cg style minimization ...
  Unit style: metal
Memory usage per processor = 4.56269 Mbytes
Step Temp E_pair E_mol TotEng Press 
     989           10   -18273.686            0   -18272.384   -6332.1714 
     994           10    -18273.69            0   -18272.388    -6369.578 
Loop time of 0.155997 on 12 procs for 5 steps with 1008 atoms

99.9% CPU use with 12 MPI tasks x no OpenMP threads

Minimization stats:
  Stopping criterion = linesearch alpha is zero
  Energy initial, next-to-last, final = 
        -18273.6855917     -18273.6901243     -18273.6901243
  Force two-norm initial, final = 0.41747 0.131373
  Force max component initial, final = 0.0387682 0.0152696
  Final line search alpha, max atom move = 4.76837e-07 7.2811e-09
  Iterations, force evaluations = 5 51

MPI task timing breakdown:
Section |  min time  |  avg time  |  max time  |%varavg| %total
---------------------------------------------------------------
Pair    | 0.055174   | 0.058299   | 0.061448   |   0.7 | 37.37
Kspace  | 0.086344   | 0.087492   | 0.088854   |   0.3 | 56.09
Neigh   | 0          | 0          | 0          |   0.0 |  0.00
Comm    | 0.0060511  | 0.0092729  | 0.011953   |   1.5 |  5.94
Output  | 0          | 0          | 0          |   0.0 |  0.00
Modify  | 0          | 0          | 0          |   0.0 |  0.00
Other   |            | 0.0009325  |            |       |  0.60

Nlocal:    84 ave 89 max 80 min
Histogram: 1 0 2 1 4 2 1 0 0 1
Nghost:    2612.33 ave 2637 max 2582 min
Histogram: 1 0 3 0 1 2 1 0 2 2
Neighs:    18629.4 ave 19815 max 17663 min
Histogram: 1 0 2 2 2 3 1 0 0 1

Total # of neighbors = 223553
Ave neighs/atom = 221.779
Neighbor list builds = 0
Dangerous builds = 0
CR_UPDATE- 23.300680	23.300680	23.300680	0.000000	0.000000	0.000000
For k = 5, applying strain of 1.00333
Changing box ...
  triclinic box = (0 0 0) to (23.3007 23.3007 23.3007) with tilt (0 0 0.077661)
WARNING: Resetting reneighboring criteria during minimization (../min.cpp:168)
Ewald initialization ...
  G vector (1/distance) = 0.365055
  estimated absolute RMS force accuracy = 1.94166e-05
  estimated relative force accuracy = 1.34841e-06
  KSpace vectors: actual max1d max3d = 2081 10 4630
                  kxmax kymax kzmax  = 10 10 10
Setting up cg style minimization ...
  Unit style: metal
Memory usage per processor = 4.56269 Mbytes
Step Temp E_pair E_mol TotEng Press 
     994           10   -18273.574            0   -18272.273   -6320.8478 
    1000           10   -18273.597            0   -18272.296   -6428.9462 
    1005           10     -18273.6            0   -18272.299   -6460.3473 
Loop time of 0.317885 on 12 procs for 11 steps with 1008 atoms

99.9% CPU use with 12 MPI tasks x no OpenMP threads

Minimization stats:
  Stopping criterion = linesearch alpha is zero
  Energy initial, next-to-last, final = 
        -18273.5743054     -18273.6004586     -18273.6004586
  Force two-norm initial, final = 0.834745 0.12466
  Force max component initial, final = 0.0774146 0.012002
  Final line search alpha, max atom move = 4.76837e-07 5.72302e-09
  Iterations, force evaluations = 11 103

MPI task timing breakdown:
Section |  min time  |  avg time  |  max time  |%varavg| %total
---------------------------------------------------------------
Pair    | 0.11238    | 0.11805    | 0.12554    |   1.0 | 37.14
Kspace  | 0.17607    | 0.17815    | 0.18221    |   0.4 | 56.04
Neigh   | 0          | 0          | 0          |   0.0 |  0.00
Comm    | 0.01372    | 0.01979    | 0.025081   |   2.0 |  6.23
Output  | 2.4796e-05 | 2.6127e-05 | 3.4809e-05 |   0.1 |  0.01
Modify  | 0          | 0          | 0          |   0.0 |  0.00
Other   |            | 0.001868   |            |       |  0.59

Nlocal:    84 ave 89 max 80 min
Histogram: 1 0 2 1 4 2 1 0 0 1
Nghost:    2612.33 ave 2637 max 2582 min
Histogram: 1 0 3 0 1 2 1 0 2 2
Neighs:    18629.7 ave 19818 max 17657 min
Histogram: 1 0 2 2 2 3 1 0 0 1

Total # of neighbors = 223556
Ave neighs/atom = 221.782
Neighbor list builds = 0
Dangerous builds = 0
CR_UPDATE- 23.300680	23.300680	23.300680	0.000000	0.000000	0.000000
For k = 6, applying strain of 1.005
Changing box ...
  triclinic box = (0 0 0) to (23.3007 23.3007 23.3007) with tilt (0 0 0.116503)
WARNING: Resetting reneighboring criteria during minimization (../min.cpp:168)
Ewald initialization ...
  G vector (1/distance) = 0.365055
  estimated absolute RMS force accuracy = 1.94166e-05
  estimated relative force accuracy = 1.34841e-06
  KSpace vectors: actual max1d max3d = 2079 10 4630
                  kxmax kymax kzmax  = 10 10 10
Setting up cg style minimization ...
  Unit style: metal
Memory usage per processor = 4.56269 Mbytes
Step Temp E_pair E_mol TotEng Press 
    1005           10   -18273.434            0   -18272.132      -6304.5 
    1023           10   -18273.496            0   -18272.195   -6588.3748 
Loop time of 0.236959 on 12 procs for 18 steps with 1008 atoms

99.9% CPU use with 12 MPI tasks x no OpenMP threads

Minimization stats:
  Stopping criterion = linesearch alpha is zero
  Energy initial, next-to-last, final = 
        -18273.4341043     -18273.4964567     -18273.4964567
  Force two-norm initial, final = 1.25237 0.128911
  Force max component initial, final = 0.116073 0.0123596
  Final line search alpha, max atom move = 4.76837e-07 5.89352e-09
  Iterations, force evaluations = 18 77

MPI task timing breakdown:
Section |  min time  |  avg time  |  max time  |%varavg| %total
---------------------------------------------------------------
Pair    | 0.083421   | 0.08789    | 0.093656   |   0.9 | 37.09
Kspace  | 0.13133    | 0.13347    | 0.13614    |   0.4 | 56.32
Neigh   | 0          | 0          | 0          |   0.0 |  0.00
Comm    | 0.0090823  | 0.014117   | 0.018411   |   1.8 |  5.96
Output  | 0          | 0          | 0          |   0.0 |  0.00
Modify  | 0          | 0          | 0          |   0.0 |  0.00
Other   |            | 0.001485   |            |       |  0.63

Nlocal:    84 ave 89 max 80 min
Histogram: 1 0 2 1 4 2 1 0 0 1
Nghost:    2612.33 ave 2637 max 2582 min
Histogram: 1 0 3 0 1 2 1 0 2 2
Neighs:    18626.8 ave 19813 max 17657 min
Histogram: 1 0 2 2 2 3 1 0 0 1

Total # of neighbors = 223522
Ave neighs/atom = 221.748
Neighbor list builds = 0
Dangerous builds = 0
Total wall time: 0:00:18
Done.
